V -t * -v 1.0a5 -a 0
A -t * -n 1 -p 0 -o 0x7fffffff -c 30 -a 1
A -t * -h 1 -m 1073741823 -s 0
c -t * -i 1 -n Blue
c -t * -i 2 -n Red
c -t * -i 3 -n Green
n -t * -a 0 -s 0 -S UP -v circle -c black -i black
n -t * -a 1 -s 1 -S UP -v circle -c black -i black
n -t * -a 2 -s 2 -S UP -v circle -c black -i black
n -t * -a 3 -s 3 -S UP -v circle -c black -i black
X -t * -n 4 -r 0.5Mb -D 40ms -o left
L -t * -s 4 -d 0 -o up
L -t * -s 4 -d 1 -o down
L -t * -s 4 -d 2 -o up
L -t * -s 4 -d 3 -o down
h -t 0.5 -s 1 -d 4 -p tcp -e 40 -c 3 -i 0 -a 3 -x {1.0 3.0 0 ------- null}
+ -t 0.54 -s 1 -d 4 -p tcp -e 40 -c 3 -i 0 -a 3 -x {1.0 3.0 0 ------- null}
- -t 0.54 -s 1 -d 4 -p tcp -e 40 -c 3 -i 0 -a 3 -x {1.0 3.0 0 ------- null}
h -t 0.54 -s 1 -d 4 -p tcp -e 40 -c 3 -i 0 -a 3 -x {1.0 3.0 -1 ------- null}
d -t 0.540004 -s 2 -d 4 -p tcp -e 40 -c 3 -i 0 -a 3 -x {1.0 3.0 0 ------- null}
d -t 0.540004 -s 0 -d 4 -p tcp -e 40 -c 3 -i 0 -a 3 -x {1.0 3.0 0 ------- null}
r -t 0.580004 -s 4 -d 3 -p tcp -e 40 -c 3 -i 0 -a 3 -x {1.0 3.0 0 ------- null}
h -t 0.580004 -s 3 -d 4 -p ack -e 40 -c 3 -i 1 -a 3 -x {3.0 1.0 0 ------- null}
+ -t 0.620004 -s 3 -d 4 -p ack -e 40 -c 3 -i 1 -a 3 -x {3.0 1.0 0 ------- null}
- -t 0.620004 -s 3 -d 4 -p ack -e 40 -c 3 -i 1 -a 3 -x {3.0 1.0 0 ------- null}
h -t 0.620004 -s 3 -d 4 -p ack -e 40 -c 3 -i 1 -a 3 -x {3.0 1.0 -1 ------- null}
d -t 0.620008 -s 2 -d 4 -p ack -e 40 -c 3 -i 1 -a 3 -x {3.0 1.0 0 ------- null}
d -t 0.620008 -s 0 -d 4 -p ack -e 40 -c 3 -i 1 -a 3 -x {3.0 1.0 0 ------- null}
r -t 0.660008 -s 4 -d 1 -p ack -e 40 -c 3 -i 1 -a 3 -x {3.0 1.0 0 ------- null}
h -t 0.660008 -s 1 -d 4 -p tcp -e 1040 -c 3 -i 2 -a 3 -x {1.0 3.0 1 ------- null}
h -t 0.660008 -s 1 -d 4 -p tcp -e 1040 -c 3 -i 3 -a 3 -x {1.0 3.0 2 ------- null}
+ -t 0.700008 -s 1 -d 4 -p tcp -e 1040 -c 3 -i 2 -a 3 -x {1.0 3.0 1 ------- null}
- -t 0.700008 -s 1 -d 4 -p tcp -e 1040 -c 3 -i 2 -a 3 -x {1.0 3.0 1 ------- null}
h -t 0.700008 -s 1 -d 4 -p tcp -e 1040 -c 3 -i 2 -a 3 -x {1.0 3.0 -1 ------- null}
+ -t 0.700008 -s 1 -d 4 -p tcp -e 1040 -c 3 -i 3 -a 3 -x {1.0 3.0 2 ------- null}
d -t 0.700012 -s 2 -d 4 -p tcp -e 1040 -c 3 -i 2 -a 3 -x {1.0 3.0 1 ------- null}
d -t 0.700012 -s 0 -d 4 -p tcp -e 1040 -c 3 -i 2 -a 3 -x {1.0 3.0 1 ------- null}
- -t 0.704424 -s 1 -d 4 -p tcp -e 1040 -c 3 -i 3 -a 3 -x {1.0 3.0 2 ------- null}
h -t 0.704424 -s 1 -d 4 -p tcp -e 1040 -c 3 -i 3 -a 3 -x {1.0 3.0 -1 ------- null}
d -t 0.704428 -s 2 -d 4 -p tcp -e 1040 -c 3 -i 3 -a 3 -x {1.0 3.0 2 ------- null}
d -t 0.704428 -s 0 -d 4 -p tcp -e 1040 -c 3 -i 3 -a 3 -x {1.0 3.0 2 ------- null}
r -t 0.740012 -s 4 -d 3 -p tcp -e 1040 -c 3 -i 2 -a 3 -x {1.0 3.0 1 ------- null}
h -t 0.740012 -s 3 -d 4 -p ack -e 40 -c 3 -i 4 -a 3 -x {3.0 1.0 1 ------- null}
r -t 0.744428 -s 4 -d 3 -p tcp -e 1040 -c 3 -i 3 -a 3 -x {1.0 3.0 2 ------- null}
h -t 0.744428 -s 3 -d 4 -p ack -e 40 -c 3 -i 5 -a 3 -x {3.0 1.0 2 ------- null}
+ -t 0.780012 -s 3 -d 4 -p ack -e 40 -c 3 -i 4 -a 3 -x {3.0 1.0 1 ------- null}
- -t 0.780012 -s 3 -d 4 -p ack -e 40 -c 3 -i 4 -a 3 -x {3.0 1.0 1 ------- null}
h -t 0.780012 -s 3 -d 4 -p ack -e 40 -c 3 -i 4 -a 3 -x {3.0 1.0 -1 ------- null}
d -t 0.780016 -s 2 -d 4 -p ack -e 40 -c 3 -i 4 -a 3 -x {3.0 1.0 1 ------- null}
d -t 0.780016 -s 0 -d 4 -p ack -e 40 -c 3 -i 4 -a 3 -x {3.0 1.0 1 ------- null}
+ -t 0.784428 -s 3 -d 4 -p ack -e 40 -c 3 -i 5 -a 3 -x {3.0 1.0 2 ------- null}
- -t 0.784428 -s 3 -d 4 -p ack -e 40 -c 3 -i 5 -a 3 -x {3.0 1.0 2 ------- null}
h -t 0.784428 -s 3 -d 4 -p ack -e 40 -c 3 -i 5 -a 3 -x {3.0 1.0 -1 ------- null}
d -t 0.784432 -s 2 -d 4 -p ack -e 40 -c 3 -i 5 -a 3 -x {3.0 1.0 2 ------- null}
d -t 0.784432 -s 0 -d 4 -p ack -e 40 -c 3 -i 5 -a 3 -x {3.0 1.0 2 ------- null}
r -t 0.820016 -s 4 -d 1 -p ack -e 40 -c 3 -i 4 -a 3 -x {3.0 1.0 1 ------- null}
h -t 0.820016 -s 1 -d 4 -p tcp -e 1040 -c 3 -i 6 -a 3 -x {1.0 3.0 3 ------- null}
h -t 0.820016 -s 1 -d 4 -p tcp -e 1040 -c 3 -i 7 -a 3 -x {1.0 3.0 4 ------- null}
r -t 0.824432 -s 4 -d 1 -p ack -e 40 -c 3 -i 5 -a 3 -x {3.0 1.0 2 ------- null}
h -t 0.824432 -s 1 -d 4 -p tcp -e 1040 -c 3 -i 8 -a 3 -x {1.0 3.0 5 ------- null}
h -t 0.824432 -s 1 -d 4 -p tcp -e 1040 -c 3 -i 9 -a 3 -x {1.0 3.0 6 ------- null}
+ -t 0.860016 -s 1 -d 4 -p tcp -e 1040 -c 3 -i 6 -a 3 -x {1.0 3.0 3 ------- null}
- -t 0.860016 -s 1 -d 4 -p tcp -e 1040 -c 3 -i 6 -a 3 -x {1.0 3.0 3 ------- null}
h -t 0.860016 -s 1 -d 4 -p tcp -e 1040 -c 3 -i 6 -a 3 -x {1.0 3.0 -1 ------- null}
+ -t 0.860016 -s 1 -d 4 -p tcp -e 1040 -c 3 -i 7 -a 3 -x {1.0 3.0 4 ------- null}
d -t 0.86002 -s 2 -d 4 -p tcp -e 1040 -c 3 -i 6 -a 3 -x {1.0 3.0 3 ------- null}
d -t 0.86002 -s 0 -d 4 -p tcp -e 1040 -c 3 -i 6 -a 3 -x {1.0 3.0 3 ------- null}
+ -t 0.864432 -s 1 -d 4 -p tcp -e 1040 -c 3 -i 8 -a 3 -x {1.0 3.0 5 ------- null}
+ -t 0.864432 -s 1 -d 4 -p tcp -e 1040 -c 3 -i 9 -a 3 -x {1.0 3.0 6 ------- null}
- -t 0.864432 -s 1 -d 4 -p tcp -e 1040 -c 3 -i 7 -a 3 -x {1.0 3.0 4 ------- null}
h -t 0.864432 -s 1 -d 4 -p tcp -e 1040 -c 3 -i 7 -a 3 -x {1.0 3.0 -1 ------- null}
d -t 0.864436 -s 2 -d 4 -p tcp -e 1040 -c 3 -i 7 -a 3 -x {1.0 3.0 4 ------- null}
d -t 0.864436 -s 0 -d 4 -p tcp -e 1040 -c 3 -i 7 -a 3 -x {1.0 3.0 4 ------- null}
- -t 0.868848 -s 1 -d 4 -p tcp -e 1040 -c 3 -i 8 -a 3 -x {1.0 3.0 5 ------- null}
h -t 0.868848 -s 1 -d 4 -p tcp -e 1040 -c 3 -i 8 -a 3 -x {1.0 3.0 -1 ------- null}
d -t 0.868852 -s 2 -d 4 -p tcp -e 1040 -c 3 -i 8 -a 3 -x {1.0 3.0 5 ------- null}
d -t 0.868852 -s 0 -d 4 -p tcp -e 1040 -c 3 -i 8 -a 3 -x {1.0 3.0 5 ------- null}
- -t 0.873264 -s 1 -d 4 -p tcp -e 1040 -c 3 -i 9 -a 3 -x {1.0 3.0 6 ------- null}
h -t 0.873264 -s 1 -d 4 -p tcp -e 1040 -c 3 -i 9 -a 3 -x {1.0 3.0 -1 ------- null}
d -t 0.873268 -s 2 -d 4 -p tcp -e 1040 -c 3 -i 9 -a 3 -x {1.0 3.0 6 ------- null}
d -t 0.873268 -s 0 -d 4 -p tcp -e 1040 -c 3 -i 9 -a 3 -x {1.0 3.0 6 ------- null}
r -t 0.90002 -s 4 -d 3 -p tcp -e 1040 -c 3 -i 6 -a 3 -x {1.0 3.0 3 ------- null}
h -t 0.90002 -s 3 -d 4 -p ack -e 40 -c 3 -i 10 -a 3 -x {3.0 1.0 3 ------- null}
r -t 0.904436 -s 4 -d 3 -p tcp -e 1040 -c 3 -i 7 -a 3 -x {1.0 3.0 4 ------- null}
h -t 0.904436 -s 3 -d 4 -p ack -e 40 -c 3 -i 11 -a 3 -x {3.0 1.0 4 ------- null}
r -t 0.908852 -s 4 -d 3 -p tcp -e 1040 -c 3 -i 8 -a 3 -x {1.0 3.0 5 ------- null}
h -t 0.908852 -s 3 -d 4 -p ack -e 40 -c 3 -i 12 -a 3 -x {3.0 1.0 5 ------- null}
r -t 0.913268 -s 4 -d 3 -p tcp -e 1040 -c 3 -i 9 -a 3 -x {1.0 3.0 6 ------- null}
h -t 0.913268 -s 3 -d 4 -p ack -e 40 -c 3 -i 13 -a 3 -x {3.0 1.0 6 ------- null}
+ -t 0.94002 -s 3 -d 4 -p ack -e 40 -c 3 -i 10 -a 3 -x {3.0 1.0 3 ------- null}
- -t 0.94002 -s 3 -d 4 -p ack -e 40 -c 3 -i 10 -a 3 -x {3.0 1.0 3 ------- null}
h -t 0.94002 -s 3 -d 4 -p ack -e 40 -c 3 -i 10 -a 3 -x {3.0 1.0 -1 ------- null}
d -t 0.940024 -s 2 -d 4 -p ack -e 40 -c 3 -i 10 -a 3 -x {3.0 1.0 3 ------- null}
d -t 0.940024 -s 0 -d 4 -p ack -e 40 -c 3 -i 10 -a 3 -x {3.0 1.0 3 ------- null}
+ -t 0.944436 -s 3 -d 4 -p ack -e 40 -c 3 -i 11 -a 3 -x {3.0 1.0 4 ------- null}
- -t 0.944436 -s 3 -d 4 -p ack -e 40 -c 3 -i 11 -a 3 -x {3.0 1.0 4 ------- null}
h -t 0.944436 -s 3 -d 4 -p ack -e 40 -c 3 -i 11 -a 3 -x {3.0 1.0 -1 ------- null}
d -t 0.94444 -s 2 -d 4 -p ack -e 40 -c 3 -i 11 -a 3 -x {3.0 1.0 4 ------- null}
d -t 0.94444 -s 0 -d 4 -p ack -e 40 -c 3 -i 11 -a 3 -x {3.0 1.0 4 ------- null}
+ -t 0.948852 -s 3 -d 4 -p ack -e 40 -c 3 -i 12 -a 3 -x {3.0 1.0 5 ------- null}
- -t 0.948852 -s 3 -d 4 -p ack -e 40 -c 3 -i 12 -a 3 -x {3.0 1.0 5 ------- null}
h -t 0.948852 -s 3 -d 4 -p ack -e 40 -c 3 -i 12 -a 3 -x {3.0 1.0 -1 ------- null}
d -t 0.948856 -s 2 -d 4 -p ack -e 40 -c 3 -i 12 -a 3 -x {3.0 1.0 5 ------- null}
d -t 0.948856 -s 0 -d 4 -p ack -e 40 -c 3 -i 12 -a 3 -x {3.0 1.0 5 ------- null}
+ -t 0.953268 -s 3 -d 4 -p ack -e 40 -c 3 -i 13 -a 3 -x {3.0 1.0 6 ------- null}
- -t 0.953268 -s 3 -d 4 -p ack -e 40 -c 3 -i 13 -a 3 -x {3.0 1.0 6 ------- null}
h -t 0.953268 -s 3 -d 4 -p ack -e 40 -c 3 -i 13 -a 3 -x {3.0 1.0 -1 ------- null}
d -t 0.953272 -s 2 -d 4 -p ack -e 40 -c 3 -i 13 -a 3 -x {3.0 1.0 6 ------- null}
d -t 0.953272 -s 0 -d 4 -p ack -e 40 -c 3 -i 13 -a 3 -x {3.0 1.0 6 ------- null}
r -t 0.980024 -s 4 -d 1 -p ack -e 40 -c 3 -i 10 -a 3 -x {3.0 1.0 3 ------- null}
h -t 0.980024 -s 1 -d 4 -p tcp -e 1040 -c 3 -i 14 -a 3 -x {1.0 3.0 7 ------- null}
h -t 0.980024 -s 1 -d 4 -p tcp -e 1040 -c 3 -i 15 -a 3 -x {1.0 3.0 8 ------- null}
r -t 0.98444 -s 4 -d 1 -p ack -e 40 -c 3 -i 11 -a 3 -x {3.0 1.0 4 ------- null}
h -t 0.98444 -s 1 -d 4 -p tcp -e 1040 -c 3 -i 16 -a 3 -x {1.0 3.0 9 ------- null}
h -t 0.98444 -s 1 -d 4 -p tcp -e 1040 -c 3 -i 17 -a 3 -x {1.0 3.0 10 ------- null}
r -t 0.988856 -s 4 -d 1 -p ack -e 40 -c 3 -i 12 -a 3 -x {3.0 1.0 5 ------- null}
h -t 0.988856 -s 1 -d 4 -p tcp -e 1040 -c 3 -i 18 -a 3 -x {1.0 3.0 11 ------- null}
h -t 0.988856 -s 1 -d 4 -p tcp -e 1040 -c 3 -i 19 -a 3 -x {1.0 3.0 12 ------- null}
r -t 0.993272 -s 4 -d 1 -p ack -e 40 -c 3 -i 13 -a 3 -x {3.0 1.0 6 ------- null}
h -t 0.993272 -s 1 -d 4 -p tcp -e 1040 -c 3 -i 20 -a 3 -x {1.0 3.0 13 ------- null}
h -t 0.993272 -s 1 -d 4 -p tcp -e 1040 -c 3 -i 21 -a 3 -x {1.0 3.0 14 ------- null}
+ -t 1.020024 -s 1 -d 4 -p tcp -e 1040 -c 3 -i 14 -a 3 -x {1.0 3.0 7 ------- null}
- -t 1.020024 -s 1 -d 4 -p tcp -e 1040 -c 3 -i 14 -a 3 -x {1.0 3.0 7 ------- null}
h -t 1.020024 -s 1 -d 4 -p tcp -e 1040 -c 3 -i 14 -a 3 -x {1.0 3.0 -1 ------- null}
+ -t 1.020024 -s 1 -d 4 -p tcp -e 1040 -c 3 -i 15 -a 3 -x {1.0 3.0 8 ------- null}
d -t 1.020028 -s 2 -d 4 -p tcp -e 1040 -c 3 -i 14 -a 3 -x {1.0 3.0 7 ------- null}
d -t 1.020028 -s 0 -d 4 -p tcp -e 1040 -c 3 -i 14 -a 3 -x {1.0 3.0 7 ------- null}
+ -t 1.02444 -s 1 -d 4 -p tcp -e 1040 -c 3 -i 16 -a 3 -x {1.0 3.0 9 ------- null}
+ -t 1.02444 -s 1 -d 4 -p tcp -e 1040 -c 3 -i 17 -a 3 -x {1.0 3.0 10 ------- null}
- -t 1.02444 -s 1 -d 4 -p tcp -e 1040 -c 3 -i 15 -a 3 -x {1.0 3.0 8 ------- null}
h -t 1.02444 -s 1 -d 4 -p tcp -e 1040 -c 3 -i 15 -a 3 -x {1.0 3.0 -1 ------- null}
d -t 1.024444 -s 2 -d 4 -p tcp -e 1040 -c 3 -i 15 -a 3 -x {1.0 3.0 8 ------- null}
d -t 1.024444 -s 0 -d 4 -p tcp -e 1040 -c 3 -i 15 -a 3 -x {1.0 3.0 8 ------- null}
+ -t 1.028856 -s 1 -d 4 -p tcp -e 1040 -c 3 -i 18 -a 3 -x {1.0 3.0 11 ------- null}
+ -t 1.028856 -s 1 -d 4 -p tcp -e 1040 -c 3 -i 19 -a 3 -x {1.0 3.0 12 ------- null}
- -t 1.028856 -s 1 -d 4 -p tcp -e 1040 -c 3 -i 16 -a 3 -x {1.0 3.0 9 ------- null}
h -t 1.028856 -s 1 -d 4 -p tcp -e 1040 -c 3 -i 16 -a 3 -x {1.0 3.0 -1 ------- null}
d -t 1.02886 -s 2 -d 4 -p tcp -e 1040 -c 3 -i 16 -a 3 -x {1.0 3.0 9 ------- null}
d -t 1.02886 -s 0 -d 4 -p tcp -e 1040 -c 3 -i 16 -a 3 -x {1.0 3.0 9 ------- null}
+ -t 1.033272 -s 1 -d 4 -p tcp -e 1040 -c 3 -i 20 -a 3 -x {1.0 3.0 13 ------- null}
+ -t 1.033272 -s 1 -d 4 -p tcp -e 1040 -c 3 -i 21 -a 3 -x {1.0 3.0 14 ------- null}
- -t 1.033272 -s 1 -d 4 -p tcp -e 1040 -c 3 -i 17 -a 3 -x {1.0 3.0 10 ------- null}
h -t 1.033272 -s 1 -d 4 -p tcp -e 1040 -c 3 -i 17 -a 3 -x {1.0 3.0 -1 ------- null}
d -t 1.033276 -s 2 -d 4 -p tcp -e 1040 -c 3 -i 17 -a 3 -x {1.0 3.0 10 ------- null}
d -t 1.033276 -s 0 -d 4 -p tcp -e 1040 -c 3 -i 17 -a 3 -x {1.0 3.0 10 ------- null}
- -t 1.037688 -s 1 -d 4 -p tcp -e 1040 -c 3 -i 18 -a 3 -x {1.0 3.0 11 ------- null}
h -t 1.037688 -s 1 -d 4 -p tcp -e 1040 -c 3 -i 18 -a 3 -x {1.0 3.0 -1 ------- null}
d -t 1.037692 -s 2 -d 4 -p tcp -e 1040 -c 3 -i 18 -a 3 -x {1.0 3.0 11 ------- null}
d -t 1.037692 -s 0 -d 4 -p tcp -e 1040 -c 3 -i 18 -a 3 -x {1.0 3.0 11 ------- null}
- -t 1.042104 -s 1 -d 4 -p tcp -e 1040 -c 3 -i 19 -a 3 -x {1.0 3.0 12 ------- null}
h -t 1.042104 -s 1 -d 4 -p tcp -e 1040 -c 3 -i 19 -a 3 -x {1.0 3.0 -1 ------- null}
d -t 1.042108 -s 2 -d 4 -p tcp -e 1040 -c 3 -i 19 -a 3 -x {1.0 3.0 12 ------- null}
d -t 1.042108 -s 0 -d 4 -p tcp -e 1040 -c 3 -i 19 -a 3 -x {1.0 3.0 12 ------- null}
- -t 1.04652 -s 1 -d 4 -p tcp -e 1040 -c 3 -i 20 -a 3 -x {1.0 3.0 13 ------- null}
h -t 1.04652 -s 1 -d 4 -p tcp -e 1040 -c 3 -i 20 -a 3 -x {1.0 3.0 -1 ------- null}
d -t 1.046524 -s 2 -d 4 -p tcp -e 1040 -c 3 -i 20 -a 3 -x {1.0 3.0 13 ------- null}
d -t 1.046524 -s 0 -d 4 -p tcp -e 1040 -c 3 -i 20 -a 3 -x {1.0 3.0 13 ------- null}
- -t 1.050936 -s 1 -d 4 -p tcp -e 1040 -c 3 -i 21 -a 3 -x {1.0 3.0 14 ------- null}
h -t 1.050936 -s 1 -d 4 -p tcp -e 1040 -c 3 -i 21 -a 3 -x {1.0 3.0 -1 ------- null}
d -t 1.05094 -s 2 -d 4 -p tcp -e 1040 -c 3 -i 21 -a 3 -x {1.0 3.0 14 ------- null}
d -t 1.05094 -s 0 -d 4 -p tcp -e 1040 -c 3 -i 21 -a 3 -x {1.0 3.0 14 ------- null}
r -t 1.060028 -s 4 -d 3 -p tcp -e 1040 -c 3 -i 14 -a 3 -x {1.0 3.0 7 ------- null}
h -t 1.060028 -s 3 -d 4 -p ack -e 40 -c 3 -i 22 -a 3 -x {3.0 1.0 7 ------- null}
r -t 1.064444 -s 4 -d 3 -p tcp -e 1040 -c 3 -i 15 -a 3 -x {1.0 3.0 8 ------- null}
h -t 1.064444 -s 3 -d 4 -p ack -e 40 -c 3 -i 23 -a 3 -x {3.0 1.0 8 ------- null}
r -t 1.06886 -s 4 -d 3 -p tcp -e 1040 -c 3 -i 16 -a 3 -x {1.0 3.0 9 ------- null}
h -t 1.06886 -s 3 -d 4 -p ack -e 40 -c 3 -i 24 -a 3 -x {3.0 1.0 9 ------- null}
r -t 1.073276 -s 4 -d 3 -p tcp -e 1040 -c 3 -i 17 -a 3 -x {1.0 3.0 10 ------- null}
h -t 1.073276 -s 3 -d 4 -p ack -e 40 -c 3 -i 25 -a 3 -x {3.0 1.0 10 ------- null}
r -t 1.077692 -s 4 -d 3 -p tcp -e 1040 -c 3 -i 18 -a 3 -x {1.0 3.0 11 ------- null}
h -t 1.077692 -s 3 -d 4 -p ack -e 40 -c 3 -i 26 -a 3 -x {3.0 1.0 11 ------- null}
r -t 1.082108 -s 4 -d 3 -p tcp -e 1040 -c 3 -i 19 -a 3 -x {1.0 3.0 12 ------- null}
h -t 1.082108 -s 3 -d 4 -p ack -e 40 -c 3 -i 27 -a 3 -x {3.0 1.0 12 ------- null}
r -t 1.086524 -s 4 -d 3 -p tcp -e 1040 -c 3 -i 20 -a 3 -x {1.0 3.0 13 ------- null}
h -t 1.086524 -s 3 -d 4 -p ack -e 40 -c 3 -i 28 -a 3 -x {3.0 1.0 13 ------- null}
r -t 1.09094 -s 4 -d 3 -p tcp -e 1040 -c 3 -i 21 -a 3 -x {1.0 3.0 14 ------- null}
h -t 1.09094 -s 3 -d 4 -p ack -e 40 -c 3 -i 29 -a 3 -x {3.0 1.0 14 ------- null}
+ -t 1.100028 -s 3 -d 4 -p ack -e 40 -c 3 -i 22 -a 3 -x {3.0 1.0 7 ------- null}
- -t 1.100028 -s 3 -d 4 -p ack -e 40 -c 3 -i 22 -a 3 -x {3.0 1.0 7 ------- null}
h -t 1.100028 -s 3 -d 4 -p ack -e 40 -c 3 -i 22 -a 3 -x {3.0 1.0 -1 ------- null}
d -t 1.100032 -s 2 -d 4 -p ack -e 40 -c 3 -i 22 -a 3 -x {3.0 1.0 7 ------- null}
d -t 1.100032 -s 0 -d 4 -p ack -e 40 -c 3 -i 22 -a 3 -x {3.0 1.0 7 ------- null}
+ -t 1.104444 -s 3 -d 4 -p ack -e 40 -c 3 -i 23 -a 3 -x {3.0 1.0 8 ------- null}
- -t 1.104444 -s 3 -d 4 -p ack -e 40 -c 3 -i 23 -a 3 -x {3.0 1.0 8 ------- null}
h -t 1.104444 -s 3 -d 4 -p ack -e 40 -c 3 -i 23 -a 3 -x {3.0 1.0 -1 ------- null}
d -t 1.104448 -s 2 -d 4 -p ack -e 40 -c 3 -i 23 -a 3 -x {3.0 1.0 8 ------- null}
d -t 1.104448 -s 0 -d 4 -p ack -e 40 -c 3 -i 23 -a 3 -x {3.0 1.0 8 ------- null}
+ -t 1.10886 -s 3 -d 4 -p ack -e 40 -c 3 -i 24 -a 3 -x {3.0 1.0 9 ------- null}
- -t 1.10886 -s 3 -d 4 -p ack -e 40 -c 3 -i 24 -a 3 -x {3.0 1.0 9 ------- null}
h -t 1.10886 -s 3 -d 4 -p ack -e 40 -c 3 -i 24 -a 3 -x {3.0 1.0 -1 ------- null}
d -t 1.108864 -s 2 -d 4 -p ack -e 40 -c 3 -i 24 -a 3 -x {3.0 1.0 9 ------- null}
d -t 1.108864 -s 0 -d 4 -p ack -e 40 -c 3 -i 24 -a 3 -x {3.0 1.0 9 ------- null}
+ -t 1.113276 -s 3 -d 4 -p ack -e 40 -c 3 -i 25 -a 3 -x {3.0 1.0 10 ------- null}
- -t 1.113276 -s 3 -d 4 -p ack -e 40 -c 3 -i 25 -a 3 -x {3.0 1.0 10 ------- null}
h -t 1.113276 -s 3 -d 4 -p ack -e 40 -c 3 -i 25 -a 3 -x {3.0 1.0 -1 ------- null}
d -t 1.11328 -s 2 -d 4 -p ack -e 40 -c 3 -i 25 -a 3 -x {3.0 1.0 10 ------- null}
d -t 1.11328 -s 0 -d 4 -p ack -e 40 -c 3 -i 25 -a 3 -x {3.0 1.0 10 ------- null}
+ -t 1.117692 -s 3 -d 4 -p ack -e 40 -c 3 -i 26 -a 3 -x {3.0 1.0 11 ------- null}
- -t 1.117692 -s 3 -d 4 -p ack -e 40 -c 3 -i 26 -a 3 -x {3.0 1.0 11 ------- null}
h -t 1.117692 -s 3 -d 4 -p ack -e 40 -c 3 -i 26 -a 3 -x {3.0 1.0 -1 ------- null}
d -t 1.117696 -s 2 -d 4 -p ack -e 40 -c 3 -i 26 -a 3 -x {3.0 1.0 11 ------- null}
d -t 1.117696 -s 0 -d 4 -p ack -e 40 -c 3 -i 26 -a 3 -x {3.0 1.0 11 ------- null}
+ -t 1.122108 -s 3 -d 4 -p ack -e 40 -c 3 -i 27 -a 3 -x {3.0 1.0 12 ------- null}
- -t 1.122108 -s 3 -d 4 -p ack -e 40 -c 3 -i 27 -a 3 -x {3.0 1.0 12 ------- null}
h -t 1.122108 -s 3 -d 4 -p ack -e 40 -c 3 -i 27 -a 3 -x {3.0 1.0 -1 ------- null}
d -t 1.122112 -s 2 -d 4 -p ack -e 40 -c 3 -i 27 -a 3 -x {3.0 1.0 12 ------- null}
d -t 1.122112 -s 0 -d 4 -p ack -e 40 -c 3 -i 27 -a 3 -x {3.0 1.0 12 ------- null}
+ -t 1.126524 -s 3 -d 4 -p ack -e 40 -c 3 -i 28 -a 3 -x {3.0 1.0 13 ------- null}
- -t 1.126524 -s 3 -d 4 -p ack -e 40 -c 3 -i 28 -a 3 -x {3.0 1.0 13 ------- null}
h -t 1.126524 -s 3 -d 4 -p ack -e 40 -c 3 -i 28 -a 3 -x {3.0 1.0 -1 ------- null}
d -t 1.126528 -s 2 -d 4 -p ack -e 40 -c 3 -i 28 -a 3 -x {3.0 1.0 13 ------- null}
d -t 1.126528 -s 0 -d 4 -p ack -e 40 -c 3 -i 28 -a 3 -x {3.0 1.0 13 ------- null}
+ -t 1.13094 -s 3 -d 4 -p ack -e 40 -c 3 -i 29 -a 3 -x {3.0 1.0 14 ------- null}
- -t 1.13094 -s 3 -d 4 -p ack -e 40 -c 3 -i 29 -a 3 -x {3.0 1.0 14 ------- null}
h -t 1.13094 -s 3 -d 4 -p ack -e 40 -c 3 -i 29 -a 3 -x {3.0 1.0 -1 ------- null}
d -t 1.130944 -s 2 -d 4 -p ack -e 40 -c 3 -i 29 -a 3 -x {3.0 1.0 14 ------- null}
d -t 1.130944 -s 0 -d 4 -p ack -e 40 -c 3 -i 29 -a 3 -x {3.0 1.0 14 ------- null}
r -t 1.140032 -s 4 -d 1 -p ack -e 40 -c 3 -i 22 -a 3 -x {3.0 1.0 7 ------- null}
h -t 1.140032 -s 1 -d 4 -p tcp -e 1040 -c 3 -i 30 -a 3 -x {1.0 3.0 15 ------- null}
h -t 1.140032 -s 1 -d 4 -p tcp -e 1040 -c 3 -i 31 -a 3 -x {1.0 3.0 16 ------- null}
r -t 1.144448 -s 4 -d 1 -p ack -e 40 -c 3 -i 23 -a 3 -x {3.0 1.0 8 ------- null}
h -t 1.144448 -s 1 -d 4 -p tcp -e 1040 -c 3 -i 32 -a 3 -x {1.0 3.0 17 ------- null}
h -t 1.144448 -s 1 -d 4 -p tcp -e 1040 -c 3 -i 33 -a 3 -x {1.0 3.0 18 ------- null}
r -t 1.148864 -s 4 -d 1 -p ack -e 40 -c 3 -i 24 -a 3 -x {3.0 1.0 9 ------- null}
h -t 1.148864 -s 1 -d 4 -p tcp -e 1040 -c 3 -i 34 -a 3 -x {1.0 3.0 19 ------- null}
h -t 1.148864 -s 1 -d 4 -p tcp -e 1040 -c 3 -i 35 -a 3 -x {1.0 3.0 20 ------- null}
r -t 1.15328 -s 4 -d 1 -p ack -e 40 -c 3 -i 25 -a 3 -x {3.0 1.0 10 ------- null}
h -t 1.15328 -s 1 -d 4 -p tcp -e 1040 -c 3 -i 36 -a 3 -x {1.0 3.0 21 ------- null}
h -t 1.15328 -s 1 -d 4 -p tcp -e 1040 -c 3 -i 37 -a 3 -x {1.0 3.0 22 ------- null}
r -t 1.157696 -s 4 -d 1 -p ack -e 40 -c 3 -i 26 -a 3 -x {3.0 1.0 11 ------- null}
h -t 1.157696 -s 1 -d 4 -p tcp -e 1040 -c 3 -i 38 -a 3 -x {1.0 3.0 23 ------- null}
h -t 1.157696 -s 1 -d 4 -p tcp -e 1040 -c 3 -i 39 -a 3 -x {1.0 3.0 24 ------- null}
r -t 1.162112 -s 4 -d 1 -p ack -e 40 -c 3 -i 27 -a 3 -x {3.0 1.0 12 ------- null}
h -t 1.162112 -s 1 -d 4 -p tcp -e 1040 -c 3 -i 40 -a 3 -x {1.0 3.0 25 ------- null}
h -t 1.162112 -s 1 -d 4 -p tcp -e 1040 -c 3 -i 41 -a 3 -x {1.0 3.0 26 ------- null}
r -t 1.166528 -s 4 -d 1 -p ack -e 40 -c 3 -i 28 -a 3 -x {3.0 1.0 13 ------- null}
h -t 1.166528 -s 1 -d 4 -p tcp -e 1040 -c 3 -i 42 -a 3 -x {1.0 3.0 27 ------- null}
h -t 1.166528 -s 1 -d 4 -p tcp -e 1040 -c 3 -i 43 -a 3 -x {1.0 3.0 28 ------- null}
r -t 1.170944 -s 4 -d 1 -p ack -e 40 -c 3 -i 29 -a 3 -x {3.0 1.0 14 ------- null}
h -t 1.170944 -s 1 -d 4 -p tcp -e 1040 -c 3 -i 44 -a 3 -x {1.0 3.0 29 ------- null}
h -t 1.170944 -s 1 -d 4 -p tcp -e 1040 -c 3 -i 45 -a 3 -x {1.0 3.0 30 ------- null}
+ -t 1.180032 -s 1 -d 4 -p tcp -e 1040 -c 3 -i 30 -a 3 -x {1.0 3.0 15 ------- null}
- -t 1.180032 -s 1 -d 4 -p tcp -e 1040 -c 3 -i 30 -a 3 -x {1.0 3.0 15 ------- null}
h -t 1.180032 -s 1 -d 4 -p tcp -e 1040 -c 3 -i 30 -a 3 -x {1.0 3.0 -1 ------- null}
+ -t 1.180032 -s 1 -d 4 -p tcp -e 1040 -c 3 -i 31 -a 3 -x {1.0 3.0 16 ------- null}
d -t 1.180036 -s 2 -d 4 -p tcp -e 1040 -c 3 -i 30 -a 3 -x {1.0 3.0 15 ------- null}
d -t 1.180036 -s 0 -d 4 -p tcp -e 1040 -c 3 -i 30 -a 3 -x {1.0 3.0 15 ------- null}
+ -t 1.184448 -s 1 -d 4 -p tcp -e 1040 -c 3 -i 32 -a 3 -x {1.0 3.0 17 ------- null}
+ -t 1.184448 -s 1 -d 4 -p tcp -e 1040 -c 3 -i 33 -a 3 -x {1.0 3.0 18 ------- null}
- -t 1.184448 -s 1 -d 4 -p tcp -e 1040 -c 3 -i 31 -a 3 -x {1.0 3.0 16 ------- null}
h -t 1.184448 -s 1 -d 4 -p tcp -e 1040 -c 3 -i 31 -a 3 -x {1.0 3.0 -1 ------- null}
d -t 1.184452 -s 2 -d 4 -p tcp -e 1040 -c 3 -i 31 -a 3 -x {1.0 3.0 16 ------- null}
d -t 1.184452 -s 0 -d 4 -p tcp -e 1040 -c 3 -i 31 -a 3 -x {1.0 3.0 16 ------- null}
+ -t 1.188864 -s 1 -d 4 -p tcp -e 1040 -c 3 -i 34 -a 3 -x {1.0 3.0 19 ------- null}
+ -t 1.188864 -s 1 -d 4 -p tcp -e 1040 -c 3 -i 35 -a 3 -x {1.0 3.0 20 ------- null}
- -t 1.188864 -s 1 -d 4 -p tcp -e 1040 -c 3 -i 32 -a 3 -x {1.0 3.0 17 ------- null}
h -t 1.188864 -s 1 -d 4 -p tcp -e 1040 -c 3 -i 32 -a 3 -x {1.0 3.0 -1 ------- null}
d -t 1.188868 -s 2 -d 4 -p tcp -e 1040 -c 3 -i 32 -a 3 -x {1.0 3.0 17 ------- null}
d -t 1.188868 -s 0 -d 4 -p tcp -e 1040 -c 3 -i 32 -a 3 -x {1.0 3.0 17 ------- null}
+ -t 1.19328 -s 1 -d 4 -p tcp -e 1040 -c 3 -i 36 -a 3 -x {1.0 3.0 21 ------- null}
+ -t 1.19328 -s 1 -d 4 -p tcp -e 1040 -c 3 -i 37 -a 3 -x {1.0 3.0 22 ------- null}
- -t 1.19328 -s 1 -d 4 -p tcp -e 1040 -c 3 -i 33 -a 3 -x {1.0 3.0 18 ------- null}
h -t 1.19328 -s 1 -d 4 -p tcp -e 1040 -c 3 -i 33 -a 3 -x {1.0 3.0 -1 ------- null}
d -t 1.193284 -s 2 -d 4 -p tcp -e 1040 -c 3 -i 33 -a 3 -x {1.0 3.0 18 ------- null}
d -t 1.193284 -s 0 -d 4 -p tcp -e 1040 -c 3 -i 33 -a 3 -x {1.0 3.0 18 ------- null}
+ -t 1.197696 -s 1 -d 4 -p tcp -e 1040 -c 3 -i 38 -a 3 -x {1.0 3.0 23 ------- null}
+ -t 1.197696 -s 1 -d 4 -p tcp -e 1040 -c 3 -i 39 -a 3 -x {1.0 3.0 24 ------- null}
- -t 1.197696 -s 1 -d 4 -p tcp -e 1040 -c 3 -i 34 -a 3 -x {1.0 3.0 19 ------- null}
h -t 1.197696 -s 1 -d 4 -p tcp -e 1040 -c 3 -i 34 -a 3 -x {1.0 3.0 -1 ------- null}
d -t 1.1977 -s 2 -d 4 -p tcp -e 1040 -c 3 -i 34 -a 3 -x {1.0 3.0 19 ------- null}
d -t 1.1977 -s 0 -d 4 -p tcp -e 1040 -c 3 -i 34 -a 3 -x {1.0 3.0 19 ------- null}
+ -t 1.202112 -s 1 -d 4 -p tcp -e 1040 -c 3 -i 40 -a 3 -x {1.0 3.0 25 ------- null}
+ -t 1.202112 -s 1 -d 4 -p tcp -e 1040 -c 3 -i 41 -a 3 -x {1.0 3.0 26 ------- null}
- -t 1.202112 -s 1 -d 4 -p tcp -e 1040 -c 3 -i 35 -a 3 -x {1.0 3.0 20 ------- null}
h -t 1.202112 -s 1 -d 4 -p tcp -e 1040 -c 3 -i 35 -a 3 -x {1.0 3.0 -1 ------- null}
d -t 1.202116 -s 2 -d 4 -p tcp -e 1040 -c 3 -i 35 -a 3 -x {1.0 3.0 20 ------- null}
d -t 1.202116 -s 0 -d 4 -p tcp -e 1040 -c 3 -i 35 -a 3 -x {1.0 3.0 20 ------- null}
+ -t 1.206528 -s 1 -d 4 -p tcp -e 1040 -c 3 -i 42 -a 3 -x {1.0 3.0 27 ------- null}
+ -t 1.206528 -s 1 -d 4 -p tcp -e 1040 -c 3 -i 43 -a 3 -x {1.0 3.0 28 ------- null}
- -t 1.206528 -s 1 -d 4 -p tcp -e 1040 -c 3 -i 36 -a 3 -x {1.0 3.0 21 ------- null}
h -t 1.206528 -s 1 -d 4 -p tcp -e 1040 -c 3 -i 36 -a 3 -x {1.0 3.0 -1 ------- null}
d -t 1.206532 -s 2 -d 4 -p tcp -e 1040 -c 3 -i 36 -a 3 -x {1.0 3.0 21 ------- null}
d -t 1.206532 -s 0 -d 4 -p tcp -e 1040 -c 3 -i 36 -a 3 -x {1.0 3.0 21 ------- null}
+ -t 1.210944 -s 1 -d 4 -p tcp -e 1040 -c 3 -i 44 -a 3 -x {1.0 3.0 29 ------- null}
+ -t 1.210944 -s 1 -d 4 -p tcp -e 1040 -c 3 -i 45 -a 3 -x {1.0 3.0 30 ------- null}
- -t 1.210944 -s 1 -d 4 -p tcp -e 1040 -c 3 -i 37 -a 3 -x {1.0 3.0 22 ------- null}
h -t 1.210944 -s 1 -d 4 -p tcp -e 1040 -c 3 -i 37 -a 3 -x {1.0 3.0 -1 ------- null}
d -t 1.210948 -s 2 -d 4 -p tcp -e 1040 -c 3 -i 37 -a 3 -x {1.0 3.0 22 ------- null}
d -t 1.210948 -s 0 -d 4 -p tcp -e 1040 -c 3 -i 37 -a 3 -x {1.0 3.0 22 ------- null}
- -t 1.21536 -s 1 -d 4 -p tcp -e 1040 -c 3 -i 38 -a 3 -x {1.0 3.0 23 ------- null}
h -t 1.21536 -s 1 -d 4 -p tcp -e 1040 -c 3 -i 38 -a 3 -x {1.0 3.0 -1 ------- null}
d -t 1.215364 -s 2 -d 4 -p tcp -e 1040 -c 3 -i 38 -a 3 -x {1.0 3.0 23 ------- null}
d -t 1.215364 -s 0 -d 4 -p tcp -e 1040 -c 3 -i 38 -a 3 -x {1.0 3.0 23 ------- null}
- -t 1.219776 -s 1 -d 4 -p tcp -e 1040 -c 3 -i 39 -a 3 -x {1.0 3.0 24 ------- null}
h -t 1.219776 -s 1 -d 4 -p tcp -e 1040 -c 3 -i 39 -a 3 -x {1.0 3.0 -1 ------- null}
d -t 1.21978 -s 2 -d 4 -p tcp -e 1040 -c 3 -i 39 -a 3 -x {1.0 3.0 24 ------- null}
d -t 1.21978 -s 0 -d 4 -p tcp -e 1040 -c 3 -i 39 -a 3 -x {1.0 3.0 24 ------- null}
r -t 1.220036 -s 4 -d 3 -p tcp -e 1040 -c 3 -i 30 -a 3 -x {1.0 3.0 15 ------- null}
h -t 1.220036 -s 3 -d 4 -p ack -e 40 -c 3 -i 46 -a 3 -x {3.0 1.0 15 ------- null}
- -t 1.224192 -s 1 -d 4 -p tcp -e 1040 -c 3 -i 40 -a 3 -x {1.0 3.0 25 ------- null}
h -t 1.224192 -s 1 -d 4 -p tcp -e 1040 -c 3 -i 40 -a 3 -x {1.0 3.0 -1 ------- null}
d -t 1.224196 -s 2 -d 4 -p tcp -e 1040 -c 3 -i 40 -a 3 -x {1.0 3.0 25 ------- null}
d -t 1.224196 -s 0 -d 4 -p tcp -e 1040 -c 3 -i 40 -a 3 -x {1.0 3.0 25 ------- null}
r -t 1.224452 -s 4 -d 3 -p tcp -e 1040 -c 3 -i 31 -a 3 -x {1.0 3.0 16 ------- null}
h -t 1.224452 -s 3 -d 4 -p ack -e 40 -c 3 -i 47 -a 3 -x {3.0 1.0 16 ------- null}
- -t 1.228608 -s 1 -d 4 -p tcp -e 1040 -c 3 -i 41 -a 3 -x {1.0 3.0 26 ------- null}
h -t 1.228608 -s 1 -d 4 -p tcp -e 1040 -c 3 -i 41 -a 3 -x {1.0 3.0 -1 ------- null}
d -t 1.228612 -s 2 -d 4 -p tcp -e 1040 -c 3 -i 41 -a 3 -x {1.0 3.0 26 ------- null}
d -t 1.228612 -s 0 -d 4 -p tcp -e 1040 -c 3 -i 41 -a 3 -x {1.0 3.0 26 ------- null}
r -t 1.228868 -s 4 -d 3 -p tcp -e 1040 -c 3 -i 32 -a 3 -x {1.0 3.0 17 ------- null}
h -t 1.228868 -s 3 -d 4 -p ack -e 40 -c 3 -i 48 -a 3 -x {3.0 1.0 17 ------- null}
- -t 1.233024 -s 1 -d 4 -p tcp -e 1040 -c 3 -i 42 -a 3 -x {1.0 3.0 27 ------- null}
h -t 1.233024 -s 1 -d 4 -p tcp -e 1040 -c 3 -i 42 -a 3 -x {1.0 3.0 -1 ------- null}
d -t 1.233028 -s 2 -d 4 -p tcp -e 1040 -c 3 -i 42 -a 3 -x {1.0 3.0 27 ------- null}
d -t 1.233028 -s 0 -d 4 -p tcp -e 1040 -c 3 -i 42 -a 3 -x {1.0 3.0 27 ------- null}
r -t 1.233284 -s 4 -d 3 -p tcp -e 1040 -c 3 -i 33 -a 3 -x {1.0 3.0 18 ------- null}
h -t 1.233284 -s 3 -d 4 -p ack -e 40 -c 3 -i 49 -a 3 -x {3.0 1.0 18 ------- null}
- -t 1.23744 -s 1 -d 4 -p tcp -e 1040 -c 3 -i 43 -a 3 -x {1.0 3.0 28 ------- null}
h -t 1.23744 -s 1 -d 4 -p tcp -e 1040 -c 3 -i 43 -a 3 -x {1.0 3.0 -1 ------- null}
d -t 1.237444 -s 2 -d 4 -p tcp -e 1040 -c 3 -i 43 -a 3 -x {1.0 3.0 28 ------- null}
d -t 1.237444 -s 0 -d 4 -p tcp -e 1040 -c 3 -i 43 -a 3 -x {1.0 3.0 28 ------- null}
r -t 1.2377 -s 4 -d 3 -p tcp -e 1040 -c 3 -i 34 -a 3 -x {1.0 3.0 19 ------- null}
h -t 1.2377 -s 3 -d 4 -p ack -e 40 -c 3 -i 50 -a 3 -x {3.0 1.0 19 ------- null}
- -t 1.241856 -s 1 -d 4 -p tcp -e 1040 -c 3 -i 44 -a 3 -x {1.0 3.0 29 ------- null}
h -t 1.241856 -s 1 -d 4 -p tcp -e 1040 -c 3 -i 44 -a 3 -x {1.0 3.0 -1 ------- null}
d -t 1.24186 -s 2 -d 4 -p tcp -e 1040 -c 3 -i 44 -a 3 -x {1.0 3.0 29 ------- null}
d -t 1.24186 -s 0 -d 4 -p tcp -e 1040 -c 3 -i 44 -a 3 -x {1.0 3.0 29 ------- null}
r -t 1.242116 -s 4 -d 3 -p tcp -e 1040 -c 3 -i 35 -a 3 -x {1.0 3.0 20 ------- null}
h -t 1.242116 -s 3 -d 4 -p ack -e 40 -c 3 -i 51 -a 3 -x {3.0 1.0 20 ------- null}
- -t 1.246272 -s 1 -d 4 -p tcp -e 1040 -c 3 -i 45 -a 3 -x {1.0 3.0 30 ------- null}
h -t 1.246272 -s 1 -d 4 -p tcp -e 1040 -c 3 -i 45 -a 3 -x {1.0 3.0 -1 ------- null}
d -t 1.246276 -s 2 -d 4 -p tcp -e 1040 -c 3 -i 45 -a 3 -x {1.0 3.0 30 ------- null}
d -t 1.246276 -s 0 -d 4 -p tcp -e 1040 -c 3 -i 45 -a 3 -x {1.0 3.0 30 ------- null}
r -t 1.246532 -s 4 -d 3 -p tcp -e 1040 -c 3 -i 36 -a 3 -x {1.0 3.0 21 ------- null}
h -t 1.246532 -s 3 -d 4 -p ack -e 40 -c 3 -i 52 -a 3 -x {3.0 1.0 21 ------- null}
r -t 1.250948 -s 4 -d 3 -p tcp -e 1040 -c 3 -i 37 -a 3 -x {1.0 3.0 22 ------- null}
h -t 1.250948 -s 3 -d 4 -p ack -e 40 -c 3 -i 53 -a 3 -x {3.0 1.0 22 ------- null}
r -t 1.255364 -s 4 -d 3 -p tcp -e 1040 -c 3 -i 38 -a 3 -x {1.0 3.0 23 ------- null}
h -t 1.255364 -s 3 -d 4 -p ack -e 40 -c 3 -i 54 -a 3 -x {3.0 1.0 23 ------- null}
r -t 1.25978 -s 4 -d 3 -p tcp -e 1040 -c 3 -i 39 -a 3 -x {1.0 3.0 24 ------- null}
h -t 1.25978 -s 3 -d 4 -p ack -e 40 -c 3 -i 55 -a 3 -x {3.0 1.0 24 ------- null}
+ -t 1.260036 -s 3 -d 4 -p ack -e 40 -c 3 -i 46 -a 3 -x {3.0 1.0 15 ------- null}
- -t 1.260036 -s 3 -d 4 -p ack -e 40 -c 3 -i 46 -a 3 -x {3.0 1.0 15 ------- null}
h -t 1.260036 -s 3 -d 4 -p ack -e 40 -c 3 -i 46 -a 3 -x {3.0 1.0 -1 ------- null}
d -t 1.26004 -s 2 -d 4 -p ack -e 40 -c 3 -i 46 -a 3 -x {3.0 1.0 15 ------- null}
d -t 1.26004 -s 0 -d 4 -p ack -e 40 -c 3 -i 46 -a 3 -x {3.0 1.0 15 ------- null}
r -t 1.264196 -s 4 -d 3 -p tcp -e 1040 -c 3 -i 40 -a 3 -x {1.0 3.0 25 ------- null}
h -t 1.264196 -s 3 -d 4 -p ack -e 40 -c 3 -i 56 -a 3 -x {3.0 1.0 25 ------- null}
+ -t 1.264452 -s 3 -d 4 -p ack -e 40 -c 3 -i 47 -a 3 -x {3.0 1.0 16 ------- null}
- -t 1.264452 -s 3 -d 4 -p ack -e 40 -c 3 -i 47 -a 3 -x {3.0 1.0 16 ------- null}
h -t 1.264452 -s 3 -d 4 -p ack -e 40 -c 3 -i 47 -a 3 -x {3.0 1.0 -1 ------- null}
d -t 1.264456 -s 2 -d 4 -p ack -e 40 -c 3 -i 47 -a 3 -x {3.0 1.0 16 ------- null}
d -t 1.264456 -s 0 -d 4 -p ack -e 40 -c 3 -i 47 -a 3 -x {3.0 1.0 16 ------- null}
r -t 1.268612 -s 4 -d 3 -p tcp -e 1040 -c 3 -i 41 -a 3 -x {1.0 3.0 26 ------- null}
h -t 1.268612 -s 3 -d 4 -p ack -e 40 -c 3 -i 57 -a 3 -x {3.0 1.0 26 ------- null}
+ -t 1.268868 -s 3 -d 4 -p ack -e 40 -c 3 -i 48 -a 3 -x {3.0 1.0 17 ------- null}
- -t 1.268868 -s 3 -d 4 -p ack -e 40 -c 3 -i 48 -a 3 -x {3.0 1.0 17 ------- null}
h -t 1.268868 -s 3 -d 4 -p ack -e 40 -c 3 -i 48 -a 3 -x {3.0 1.0 -1 ------- null}
d -t 1.268872 -s 2 -d 4 -p ack -e 40 -c 3 -i 48 -a 3 -x {3.0 1.0 17 ------- null}
d -t 1.268872 -s 0 -d 4 -p ack -e 40 -c 3 -i 48 -a 3 -x {3.0 1.0 17 ------- null}
r -t 1.273028 -s 4 -d 3 -p tcp -e 1040 -c 3 -i 42 -a 3 -x {1.0 3.0 27 ------- null}
h -t 1.273028 -s 3 -d 4 -p ack -e 40 -c 3 -i 58 -a 3 -x {3.0 1.0 27 ------- null}
+ -t 1.273284 -s 3 -d 4 -p ack -e 40 -c 3 -i 49 -a 3 -x {3.0 1.0 18 ------- null}
- -t 1.273284 -s 3 -d 4 -p ack -e 40 -c 3 -i 49 -a 3 -x {3.0 1.0 18 ------- null}
h -t 1.273284 -s 3 -d 4 -p ack -e 40 -c 3 -i 49 -a 3 -x {3.0 1.0 -1 ------- null}
d -t 1.273288 -s 2 -d 4 -p ack -e 40 -c 3 -i 49 -a 3 -x {3.0 1.0 18 ------- null}
d -t 1.273288 -s 0 -d 4 -p ack -e 40 -c 3 -i 49 -a 3 -x {3.0 1.0 18 ------- null}
r -t 1.277444 -s 4 -d 3 -p tcp -e 1040 -c 3 -i 43 -a 3 -x {1.0 3.0 28 ------- null}
h -t 1.277444 -s 3 -d 4 -p ack -e 40 -c 3 -i 59 -a 3 -x {3.0 1.0 28 ------- null}
+ -t 1.2777 -s 3 -d 4 -p ack -e 40 -c 3 -i 50 -a 3 -x {3.0 1.0 19 ------- null}
- -t 1.2777 -s 3 -d 4 -p ack -e 40 -c 3 -i 50 -a 3 -x {3.0 1.0 19 ------- null}
h -t 1.2777 -s 3 -d 4 -p ack -e 40 -c 3 -i 50 -a 3 -x {3.0 1.0 -1 ------- null}
d -t 1.277704 -s 2 -d 4 -p ack -e 40 -c 3 -i 50 -a 3 -x {3.0 1.0 19 ------- null}