V -t * -v 1.0a5 -a 0
A -t * -n 1 -p 0 -o 0x7fffffff -c 30 -a 1
A -t * -h 1 -m 1073741823 -s 0
c -t * -i 4 -n Yellow
c -t * -i 5 -n Purple
c -t * -i 1 -n Blue
c -t * -i 6 -n Orange
c -t * -i 2 -n Red
c -t * -i 3 -n Green
n -t * -a 0 -s 0 -S UP -v circle -c black -i black
n -t * -a 1 -s 1 -S UP -v circle -c black -i black
n -t * -a 2 -s 2 -S UP -v circle -c black -i black
n -t * -a 3 -s 3 -S UP -v circle -c black -i black
l -t * -s 0 -d 1 -S UP -r 1000000 -D 0.01 -c black
l -t * -s 0 -d 2 -S UP -r 1000000 -D 0.01 -c black
l -t * -s 0 -d 3 -S UP -r 1000000 -D 0.01 -c black
l -t * -s 1 -d 2 -S UP -r 1000000 -D 0.01 -c black
l -t * -s 1 -d 3 -S UP -r 1000000 -D 0.01 -c black
l -t * -s 2 -d 3 -S UP -r 1000000 -D 0.01 -c black
+ -t 0.5 -s 0 -d 1 -p tcp -e 40 -c 1 -i 0 -a 1 -x {0.0 1.1 0 ------- null}
- -t 0.5 -s 0 -d 1 -p tcp -e 40 -c 1 -i 0 -a 1 -x {0.0 1.1 0 ------- null}
h -t 0.5 -s 0 -d 1 -p tcp -e 40 -c 1 -i 0 -a 1 -x {0.0 1.1 -1 ------- null}
+ -t 0.5 -s 1 -d 2 -p tcp -e 40 -c 2 -i 1 -a 2 -x {1.0 2.1 0 ------- null}
- -t 0.5 -s 1 -d 2 -p tcp -e 40 -c 2 -i 1 -a 2 -x {1.0 2.1 0 ------- null}
h -t 0.5 -s 1 -d 2 -p tcp -e 40 -c 2 -i 1 -a 2 -x {1.0 2.1 -1 ------- null}
+ -t 0.5 -s 2 -d 3 -p tcp -e 40 -c 3 -i 2 -a 3 -x {2.0 3.2 0 ------- null}
- -t 0.5 -s 2 -d 3 -p tcp -e 40 -c 3 -i 2 -a 3 -x {2.0 3.2 0 ------- null}
h -t 0.5 -s 2 -d 3 -p tcp -e 40 -c 3 -i 2 -a 3 -x {2.0 3.2 -1 ------- null}
+ -t 0.5 -s 3 -d 0 -p tcp -e 40 -c 4 -i 3 -a 4 -x {3.0 0.2 0 ------- null}
- -t 0.5 -s 3 -d 0 -p tcp -e 40 -c 4 -i 3 -a 4 -x {3.0 0.2 0 ------- null}
h -t 0.5 -s 3 -d 0 -p tcp -e 40 -c 4 -i 3 -a 4 -x {3.0 0.2 -1 ------- null}
+ -t 0.5 -s 0 -d 2 -p tcp -e 40 -c 5 -i 4 -a 5 -x {0.1 2.2 0 ------- null}
- -t 0.5 -s 0 -d 2 -p tcp -e 40 -c 5 -i 4 -a 5 -x {0.1 2.2 0 ------- null}
h -t 0.5 -s 0 -d 2 -p tcp -e 40 -c 5 -i 4 -a 5 -x {0.1 2.2 -1 ------- null}
+ -t 0.5 -s 3 -d 1 -p tcp -e 40 -c 6 -i 5 -a 6 -x {3.1 1.2 0 ------- null}
- -t 0.5 -s 3 -d 1 -p tcp -e 40 -c 6 -i 5 -a 6 -x {3.1 1.2 0 ------- null}
h -t 0.5 -s 3 -d 1 -p tcp -e 40 -c 6 -i 5 -a 6 -x {3.1 1.2 -1 ------- null}
r -t 0.51032 -s 0 -d 1 -p tcp -e 40 -c 1 -i 0 -a 1 -x {0.0 1.1 0 ------- null}
+ -t 0.51032 -s 1 -d 0 -p ack -e 40 -c 1 -i 6 -a 1 -x {1.1 0.0 0 ------- null}
- -t 0.51032 -s 1 -d 0 -p ack -e 40 -c 1 -i 6 -a 1 -x {1.1 0.0 0 ------- null}
h -t 0.51032 -s 1 -d 0 -p ack -e 40 -c 1 -i 6 -a 1 -x {1.1 0.0 -1 ------- null}
r -t 0.51032 -s 1 -d 2 -p tcp -e 40 -c 2 -i 1 -a 2 -x {1.0 2.1 0 ------- null}
+ -t 0.51032 -s 2 -d 1 -p ack -e 40 -c 2 -i 7 -a 2 -x {2.1 1.0 0 ------- null}
- -t 0.51032 -s 2 -d 1 -p ack -e 40 -c 2 -i 7 -a 2 -x {2.1 1.0 0 ------- null}
h -t 0.51032 -s 2 -d 1 -p ack -e 40 -c 2 -i 7 -a 2 -x {2.1 1.0 -1 ------- null}
r -t 0.51032 -s 2 -d 3 -p tcp -e 40 -c 3 -i 2 -a 3 -x {2.0 3.2 0 ------- null}
+ -t 0.51032 -s 3 -d 2 -p ack -e 40 -c 3 -i 8 -a 3 -x {3.2 2.0 0 ------- null}
- -t 0.51032 -s 3 -d 2 -p ack -e 40 -c 3 -i 8 -a 3 -x {3.2 2.0 0 ------- null}
h -t 0.51032 -s 3 -d 2 -p ack -e 40 -c 3 -i 8 -a 3 -x {3.2 2.0 -1 ------- null}
r -t 0.51032 -s 3 -d 0 -p tcp -e 40 -c 4 -i 3 -a 4 -x {3.0 0.2 0 ------- null}
+ -t 0.51032 -s 0 -d 3 -p ack -e 40 -c 4 -i 9 -a 4 -x {0.2 3.0 0 ------- null}
- -t 0.51032 -s 0 -d 3 -p ack -e 40 -c 4 -i 9 -a 4 -x {0.2 3.0 0 ------- null}
h -t 0.51032 -s 0 -d 3 -p ack -e 40 -c 4 -i 9 -a 4 -x {0.2 3.0 -1 ------- null}
r -t 0.51032 -s 0 -d 2 -p tcp -e 40 -c 5 -i 4 -a 5 -x {0.1 2.2 0 ------- null}
+ -t 0.51032 -s 2 -d 0 -p ack -e 40 -c 5 -i 10 -a 5 -x {2.2 0.1 0 ------- null}
- -t 0.51032 -s 2 -d 0 -p ack -e 40 -c 5 -i 10 -a 5 -x {2.2 0.1 0 ------- null}
h -t 0.51032 -s 2 -d 0 -p ack -e 40 -c 5 -i 10 -a 5 -x {2.2 0.1 -1 ------- null}
r -t 0.51032 -s 3 -d 1 -p tcp -e 40 -c 6 -i 5 -a 6 -x {3.1 1.2 0 ------- null}
+ -t 0.51032 -s 1 -d 3 -p ack -e 40 -c 6 -i 11 -a 6 -x {1.2 3.1 0 ------- null}
- -t 0.51032 -s 1 -d 3 -p ack -e 40 -c 6 -i 11 -a 6 -x {1.2 3.1 0 ------- null}
h -t 0.51032 -s 1 -d 3 -p ack -e 40 -c 6 -i 11 -a 6 -x {1.2 3.1 -1 ------- null}
r -t 0.52064 -s 1 -d 0 -p ack -e 40 -c 1 -i 6 -a 1 -x {1.1 0.0 0 ------- null}
+ -t 0.52064 -s 0 -d 1 -p tcp -e 1040 -c 1 -i 12 -a 1 -x {0.0 1.1 1 ------- null}
- -t 0.52064 -s 0 -d 1 -p tcp -e 1040 -c 1 -i 12 -a 1 -x {0.0 1.1 1 ------- null}
h -t 0.52064 -s 0 -d 1 -p tcp -e 1040 -c 1 -i 12 -a 1 -x {0.0 1.1 -1 ------- null}
+ -t 0.52064 -s 0 -d 1 -p tcp -e 1040 -c 1 -i 13 -a 1 -x {0.0 1.1 2 ------- null}
r -t 0.52064 -s 2 -d 1 -p ack -e 40 -c 2 -i 7 -a 2 -x {2.1 1.0 0 ------- null}
+ -t 0.52064 -s 1 -d 2 -p tcp -e 1040 -c 2 -i 14 -a 2 -x {1.0 2.1 1 ------- null}
- -t 0.52064 -s 1 -d 2 -p tcp -e 1040 -c 2 -i 14 -a 2 -x {1.0 2.1 1 ------- null}
h -t 0.52064 -s 1 -d 2 -p tcp -e 1040 -c 2 -i 14 -a 2 -x {1.0 2.1 -1 ------- null}
+ -t 0.52064 -s 1 -d 2 -p tcp -e 1040 -c 2 -i 15 -a 2 -x {1.0 2.1 2 ------- null}
r -t 0.52064 -s 3 -d 2 -p ack -e 40 -c 3 -i 8 -a 3 -x {3.2 2.0 0 ------- null}
+ -t 0.52064 -s 2 -d 3 -p tcp -e 1040 -c 3 -i 16 -a 3 -x {2.0 3.2 1 ------- null}
- -t 0.52064 -s 2 -d 3 -p tcp -e 1040 -c 3 -i 16 -a 3 -x {2.0 3.2 1 ------- null}
h -t 0.52064 -s 2 -d 3 -p tcp -e 1040 -c 3 -i 16 -a 3 -x {2.0 3.2 -1 ------- null}
r -t 0.52064 -s 0 -d 3 -p ack -e 40 -c 4 -i 9 -a 4 -x {0.2 3.0 0 ------- null}
+ -t 0.52064 -s 3 -d 0 -p tcp -e 1040 -c 4 -i 17 -a 4 -x {3.0 0.2 1 ------- null}
- -t 0.52064 -s 3 -d 0 -p tcp -e 1040 -c 4 -i 17 -a 4 -x {3.0 0.2 1 ------- null}
h -t 0.52064 -s 3 -d 0 -p tcp -e 1040 -c 4 -i 17 -a 4 -x {3.0 0.2 -1 ------- null}
r -t 0.52064 -s 2 -d 0 -p ack -e 40 -c 5 -i 10 -a 5 -x {2.2 0.1 0 ------- null}
+ -t 0.52064 -s 0 -d 2 -p tcp -e 1040 -c 5 -i 18 -a 5 -x {0.1 2.2 1 ------- null}
- -t 0.52064 -s 0 -d 2 -p tcp -e 1040 -c 5 -i 18 -a 5 -x {0.1 2.2 1 ------- null}
h -t 0.52064 -s 0 -d 2 -p tcp -e 1040 -c 5 -i 18 -a 5 -x {0.1 2.2 -1 ------- null}
r -t 0.52064 -s 1 -d 3 -p ack -e 40 -c 6 -i 11 -a 6 -x {1.2 3.1 0 ------- null}
+ -t 0.52064 -s 3 -d 1 -p tcp -e 1040 -c 6 -i 19 -a 6 -x {3.1 1.2 1 ------- null}
- -t 0.52064 -s 3 -d 1 -p tcp -e 1040 -c 6 -i 19 -a 6 -x {3.1 1.2 1 ------- null}
h -t 0.52064 -s 3 -d 1 -p tcp -e 1040 -c 6 -i 19 -a 6 -x {3.1 1.2 -1 ------- null}
- -t 0.52896 -s 0 -d 1 -p tcp -e 1040 -c 1 -i 13 -a 1 -x {0.0 1.1 2 ------- null}
h -t 0.52896 -s 0 -d 1 -p tcp -e 1040 -c 1 -i 13 -a 1 -x {0.0 1.1 -1 ------- null}
- -t 0.52896 -s 1 -d 2 -p tcp -e 1040 -c 2 -i 15 -a 2 -x {1.0 2.1 2 ------- null}
h -t 0.52896 -s 1 -d 2 -p tcp -e 1040 -c 2 -i 15 -a 2 -x {1.0 2.1 -1 ------- null}
+ -t 0.53 -s 2 -d 3 -p tcp -e 1040 -c 3 -i 20 -a 3 -x {2.0 3.2 2 ------- null}
- -t 0.53 -s 2 -d 3 -p tcp -e 1040 -c 3 -i 20 -a 3 -x {2.0 3.2 2 ------- null}
h -t 0.53 -s 2 -d 3 -p tcp -e 1040 -c 3 -i 20 -a 3 -x {2.0 3.2 -1 ------- null}
r -t 0.53896 -s 0 -d 1 -p tcp -e 1040 -c 1 -i 12 -a 1 -x {0.0 1.1 1 ------- null}
+ -t 0.53896 -s 1 -d 0 -p ack -e 40 -c 1 -i 21 -a 1 -x {1.1 0.0 1 ------- null}
- -t 0.53896 -s 1 -d 0 -p ack -e 40 -c 1 -i 21 -a 1 -x {1.1 0.0 1 ------- null}
h -t 0.53896 -s 1 -d 0 -p ack -e 40 -c 1 -i 21 -a 1 -x {1.1 0.0 -1 ------- null}
r -t 0.53896 -s 1 -d 2 -p tcp -e 1040 -c 2 -i 14 -a 2 -x {1.0 2.1 1 ------- null}
+ -t 0.53896 -s 2 -d 1 -p ack -e 40 -c 2 -i 22 -a 2 -x {2.1 1.0 1 ------- null}
- -t 0.53896 -s 2 -d 1 -p ack -e 40 -c 2 -i 22 -a 2 -x {2.1 1.0 1 ------- null}
h -t 0.53896 -s 2 -d 1 -p ack -e 40 -c 2 -i 22 -a 2 -x {2.1 1.0 -1 ------- null}
r -t 0.53896 -s 2 -d 3 -p tcp -e 1040 -c 3 -i 16 -a 3 -x {2.0 3.2 1 ------- null}
+ -t 0.53896 -s 3 -d 2 -p ack -e 40 -c 3 -i 23 -a 3 -x {3.2 2.0 1 ------- null}
- -t 0.53896 -s 3 -d 2 -p ack -e 40 -c 3 -i 23 -a 3 -x {3.2 2.0 1 ------- null}
h -t 0.53896 -s 3 -d 2 -p ack -e 40 -c 3 -i 23 -a 3 -x {3.2 2.0 -1 ------- null}
r -t 0.53896 -s 3 -d 0 -p tcp -e 1040 -c 4 -i 17 -a 4 -x {3.0 0.2 1 ------- null}
+ -t 0.53896 -s 0 -d 3 -p ack -e 40 -c 4 -i 24 -a 4 -x {0.2 3.0 1 ------- null}
- -t 0.53896 -s 0 -d 3 -p ack -e 40 -c 4 -i 24 -a 4 -x {0.2 3.0 1 ------- null}
h -t 0.53896 -s 0 -d 3 -p ack -e 40 -c 4 -i 24 -a 4 -x {0.2 3.0 -1 ------- null}
r -t 0.53896 -s 0 -d 2 -p tcp -e 1040 -c 5 -i 18 -a 5 -x {0.1 2.2 1 ------- null}
+ -t 0.53896 -s 2 -d 0 -p ack -e 40 -c 5 -i 25 -a 5 -x {2.2 0.1 1 ------- null}
- -t 0.53896 -s 2 -d 0 -p ack -e 40 -c 5 -i 25 -a 5 -x {2.2 0.1 1 ------- null}
h -t 0.53896 -s 2 -d 0 -p ack -e 40 -c 5 -i 25 -a 5 -x {2.2 0.1 -1 ------- null}
r -t 0.53896 -s 3 -d 1 -p tcp -e 1040 -c 6 -i 19 -a 6 -x {3.1 1.2 1 ------- null}
+ -t 0.53896 -s 1 -d 3 -p ack -e 40 -c 6 -i 26 -a 6 -x {1.2 3.1 1 ------- null}
- -t 0.53896 -s 1 -d 3 -p ack -e 40 -c 6 -i 26 -a 6 -x {1.2 3.1 1 ------- null}
h -t 0.53896 -s 1 -d 3 -p ack -e 40 -c 6 -i 26 -a 6 -x {1.2 3.1 -1 ------- null}
r -t 0.54728 -s 0 -d 1 -p tcp -e 1040 -c 1 -i 13 -a 1 -x {0.0 1.1 2 ------- null}
+ -t 0.54728 -s 1 -d 0 -p ack -e 40 -c 1 -i 27 -a 1 -x {1.1 0.0 2 ------- null}
- -t 0.54728 -s 1 -d 0 -p ack -e 40 -c 1 -i 27 -a 1 -x {1.1 0.0 2 ------- null}
h -t 0.54728 -s 1 -d 0 -p ack -e 40 -c 1 -i 27 -a 1 -x {1.1 0.0 -1 ------- null}
r -t 0.54728 -s 1 -d 2 -p tcp -e 1040 -c 2 -i 15 -a 2 -x {1.0 2.1 2 ------- null}
+ -t 0.54728 -s 2 -d 1 -p ack -e 40 -c 2 -i 28 -a 2 -x {2.1 1.0 2 ------- null}
- -t 0.54728 -s 2 -d 1 -p ack -e 40 -c 2 -i 28 -a 2 -x {2.1 1.0 2 ------- null}
h -t 0.54728 -s 2 -d 1 -p ack -e 40 -c 2 -i 28 -a 2 -x {2.1 1.0 -1 ------- null}
r -t 0.54832 -s 2 -d 3 -p tcp -e 1040 -c 3 -i 20 -a 3 -x {2.0 3.2 2 ------- null}
+ -t 0.54832 -s 3 -d 2 -p ack -e 40 -c 3 -i 29 -a 3 -x {3.2 2.0 2 ------- null}
- -t 0.54832 -s 3 -d 2 -p ack -e 40 -c 3 -i 29 -a 3 -x {3.2 2.0 2 ------- null}
h -t 0.54832 -s 3 -d 2 -p ack -e 40 -c 3 -i 29 -a 3 -x {3.2 2.0 -1 ------- null}
r -t 0.54928 -s 1 -d 0 -p ack -e 40 -c 1 -i 21 -a 1 -x {1.1 0.0 1 ------- null}
+ -t 0.54928 -s 0 -d 1 -p tcp -e 1040 -c 1 -i 30 -a 1 -x {0.0 1.1 3 ------- null}
- -t 0.54928 -s 0 -d 1 -p tcp -e 1040 -c 1 -i 30 -a 1 -x {0.0 1.1 3 ------- null}
h -t 0.54928 -s 0 -d 1 -p tcp -e 1040 -c 1 -i 30 -a 1 -x {0.0 1.1 -1 ------- null}
+ -t 0.54928 -s 0 -d 1 -p tcp -e 1040 -c 1 -i 31 -a 1 -x {0.0 1.1 4 ------- null}
r -t 0.54928 -s 2 -d 1 -p ack -e 40 -c 2 -i 22 -a 2 -x {2.1 1.0 1 ------- null}
+ -t 0.54928 -s 1 -d 2 -p tcp -e 1040 -c 2 -i 32 -a 2 -x {1.0 2.1 3 ------- null}
- -t 0.54928 -s 1 -d 2 -p tcp -e 1040 -c 2 -i 32 -a 2 -x {1.0 2.1 3 ------- null}
h -t 0.54928 -s 1 -d 2 -p tcp -e 1040 -c 2 -i 32 -a 2 -x {1.0 2.1 -1 ------- null}
r -t 0.54928 -s 3 -d 2 -p ack -e 40 -c 3 -i 23 -a 3 -x {3.2 2.0 1 ------- null}
r -t 0.54928 -s 0 -d 3 -p ack -e 40 -c 4 -i 24 -a 4 -x {0.2 3.0 1 ------- null}
r -t 0.54928 -s 2 -d 0 -p ack -e 40 -c 5 -i 25 -a 5 -x {2.2 0.1 1 ------- null}
r -t 0.54928 -s 1 -d 3 -p ack -e 40 -c 6 -i 26 -a 6 -x {1.2 3.1 1 ------- null}
+ -t 0.55 -s 3 -d 0 -p tcp -e 1040 -c 4 -i 33 -a 4 -x {3.0 0.2 2 ------- null}
- -t 0.55 -s 3 -d 0 -p tcp -e 1040 -c 4 -i 33 -a 4 -x {3.0 0.2 2 ------- null}
h -t 0.55 -s 3 -d 0 -p tcp -e 1040 -c 4 -i 33 -a 4 -x {3.0 0.2 -1 ------- null}
r -t 0.5576 -s 1 -d 0 -p ack -e 40 -c 1 -i 27 -a 1 -x {1.1 0.0 2 ------- null}
+ -t 0.5576 -s 0 -d 1 -p tcp -e 1040 -c 1 -i 34 -a 1 -x {0.0 1.1 5 ------- null}
+ -t 0.5576 -s 0 -d 1 -p tcp -e 1040 -c 1 -i 35 -a 1 -x {0.0 1.1 6 ------- null}
r -t 0.5576 -s 2 -d 1 -p ack -e 40 -c 2 -i 28 -a 2 -x {2.1 1.0 2 ------- null}
- -t 0.5576 -s 0 -d 1 -p tcp -e 1040 -c 1 -i 31 -a 1 -x {0.0 1.1 4 ------- null}
h -t 0.5576 -s 0 -d 1 -p tcp -e 1040 -c 1 -i 31 -a 1 -x {0.0 1.1 -1 ------- null}
r -t 0.55864 -s 3 -d 2 -p ack -e 40 -c 3 -i 29 -a 3 -x {3.2 2.0 2 ------- null}
+ -t 0.56 -s 0 -d 2 -p tcp -e 1040 -c 5 -i 36 -a 5 -x {0.1 2.2 2 ------- null}
- -t 0.56 -s 0 -d 2 -p tcp -e 1040 -c 5 -i 36 -a 5 -x {0.1 2.2 2 ------- null}
h -t 0.56 -s 0 -d 2 -p tcp -e 1040 -c 5 -i 36 -a 5 -x {0.1 2.2 -1 ------- null}
+ -t 0.56 -s 2 -d 3 -p tcp -e 1040 -c 3 -i 37 -a 3 -x {2.0 3.2 3 ------- null}
- -t 0.56 -s 2 -d 3 -p tcp -e 1040 -c 3 -i 37 -a 3 -x {2.0 3.2 3 ------- null}
h -t 0.56 -s 2 -d 3 -p tcp -e 1040 -c 3 -i 37 -a 3 -x {2.0 3.2 -1 ------- null}
+ -t 0.56 -s 1 -d 2 -p tcp -e 1040 -c 2 -i 38 -a 2 -x {1.0 2.1 4 ------- null}
- -t 0.56 -s 1 -d 2 -p tcp -e 1040 -c 2 -i 38 -a 2 -x {1.0 2.1 4 ------- null}
h -t 0.56 -s 1 -d 2 -p tcp -e 1040 -c 2 -i 38 -a 2 -x {1.0 2.1 -1 ------- null}
- -t 0.56592 -s 0 -d 1 -p tcp -e 1040 -c 1 -i 34 -a 1 -x {0.0 1.1 5 ------- null}
h -t 0.56592 -s 0 -d 1 -p tcp -e 1040 -c 1 -i 34 -a 1 -x {0.0 1.1 -1 ------- null}
r -t 0.5676 -s 0 -d 1 -p tcp -e 1040 -c 1 -i 30 -a 1 -x {0.0 1.1 3 ------- null}
+ -t 0.5676 -s 1 -d 0 -p ack -e 40 -c 1 -i 39 -a 1 -x {1.1 0.0 3 ------- null}
- -t 0.5676 -s 1 -d 0 -p ack -e 40 -c 1 -i 39 -a 1 -x {1.1 0.0 3 ------- null}
h -t 0.5676 -s 1 -d 0 -p ack -e 40 -c 1 -i 39 -a 1 -x {1.1 0.0 -1 ------- null}
r -t 0.5676 -s 1 -d 2 -p tcp -e 1040 -c 2 -i 32 -a 2 -x {1.0 2.1 3 ------- null}
+ -t 0.5676 -s 2 -d 1 -p ack -e 40 -c 2 -i 40 -a 2 -x {2.1 1.0 3 ------- null}
- -t 0.5676 -s 2 -d 1 -p ack -e 40 -c 2 -i 40 -a 2 -x {2.1 1.0 3 ------- null}
h -t 0.5676 -s 2 -d 1 -p ack -e 40 -c 2 -i 40 -a 2 -x {2.1 1.0 -1 ------- null}
r -t 0.56832 -s 3 -d 0 -p tcp -e 1040 -c 4 -i 33 -a 4 -x {3.0 0.2 2 ------- null}
+ -t 0.56832 -s 0 -d 3 -p ack -e 40 -c 4 -i 41 -a 4 -x {0.2 3.0 2 ------- null}
- -t 0.56832 -s 0 -d 3 -p ack -e 40 -c 4 -i 41 -a 4 -x {0.2 3.0 2 ------- null}
h -t 0.56832 -s 0 -d 3 -p ack -e 40 -c 4 -i 41 -a 4 -x {0.2 3.0 -1 ------- null}
+ -t 0.57 -s 3 -d 1 -p tcp -e 1040 -c 6 -i 42 -a 6 -x {3.1 1.2 2 ------- null}
- -t 0.57 -s 3 -d 1 -p tcp -e 1040 -c 6 -i 42 -a 6 -x {3.1 1.2 2 ------- null}
h -t 0.57 -s 3 -d 1 -p tcp -e 1040 -c 6 -i 42 -a 6 -x {3.1 1.2 -1 ------- null}
- -t 0.57424 -s 0 -d 1 -p tcp -e 1040 -c 1 -i 35 -a 1 -x {0.0 1.1 6 ------- null}
h -t 0.57424 -s 0 -d 1 -p tcp -e 1040 -c 1 -i 35 -a 1 -x {0.0 1.1 -1 ------- null}
r -t 0.57592 -s 0 -d 1 -p tcp -e 1040 -c 1 -i 31 -a 1 -x {0.0 1.1 4 ------- null}
+ -t 0.57592 -s 1 -d 0 -p ack -e 40 -c 1 -i 43 -a 1 -x {1.1 0.0 4 ------- null}
- -t 0.57592 -s 1 -d 0 -p ack -e 40 -c 1 -i 43 -a 1 -x {1.1 0.0 4 ------- null}
h -t 0.57592 -s 1 -d 0 -p ack -e 40 -c 1 -i 43 -a 1 -x {1.1 0.0 -1 ------- null}
r -t 0.57792 -s 1 -d 0 -p ack -e 40 -c 1 -i 39 -a 1 -x {1.1 0.0 3 ------- null}
+ -t 0.57792 -s 0 -d 1 -p tcp -e 1040 -c 1 -i 44 -a 1 -x {0.0 1.1 7 ------- null}
+ -t 0.57792 -s 0 -d 1 -p tcp -e 1040 -c 1 -i 45 -a 1 -x {0.0 1.1 8 ------- null}
r -t 0.57792 -s 2 -d 1 -p ack -e 40 -c 2 -i 40 -a 2 -x {2.1 1.0 3 ------- null}
r -t 0.57832 -s 0 -d 2 -p tcp -e 1040 -c 5 -i 36 -a 5 -x {0.1 2.2 2 ------- null}
+ -t 0.57832 -s 2 -d 0 -p ack -e 40 -c 5 -i 46 -a 5 -x {2.2 0.1 2 ------- null}
- -t 0.57832 -s 2 -d 0 -p ack -e 40 -c 5 -i 46 -a 5 -x {2.2 0.1 2 ------- null}
h -t 0.57832 -s 2 -d 0 -p ack -e 40 -c 5 -i 46 -a 5 -x {2.2 0.1 -1 ------- null}
r -t 0.57832 -s 2 -d 3 -p tcp -e 1040 -c 3 -i 37 -a 3 -x {2.0 3.2 3 ------- null}
+ -t 0.57832 -s 3 -d 2 -p ack -e 40 -c 3 -i 47 -a 3 -x {3.2 2.0 3 ------- null}
- -t 0.57832 -s 3 -d 2 -p ack -e 40 -c 3 -i 47 -a 3 -x {3.2 2.0 3 ------- null}
h -t 0.57832 -s 3 -d 2 -p ack -e 40 -c 3 -i 47 -a 3 -x {3.2 2.0 -1 ------- null}
r -t 0.57832 -s 1 -d 2 -p tcp -e 1040 -c 2 -i 38 -a 2 -x {1.0 2.1 4 ------- null}
+ -t 0.57832 -s 2 -d 1 -p ack -e 40 -c 2 -i 48 -a 2 -x {2.1 1.0 4 ------- null}
- -t 0.57832 -s 2 -d 1 -p ack -e 40 -c 2 -i 48 -a 2 -x {2.1 1.0 4 ------- null}
h -t 0.57832 -s 2 -d 1 -p ack -e 40 -c 2 -i 48 -a 2 -x {2.1 1.0 -1 ------- null}
r -t 0.57864 -s 0 -d 3 -p ack -e 40 -c 4 -i 41 -a 4 -x {0.2 3.0 2 ------- null}
+ -t 0.58 -s 1 -d 2 -p tcp -e 1040 -c 2 -i 49 -a 2 -x {1.0 2.1 5 ------- null}
- -t 0.58 -s 1 -d 2 -p tcp -e 1040 -c 2 -i 49 -a 2 -x {1.0 2.1 5 ------- null}
h -t 0.58 -s 1 -d 2 -p tcp -e 1040 -c 2 -i 49 -a 2 -x {1.0 2.1 -1 ------- null}
- -t 0.58256 -s 0 -d 1 -p tcp -e 1040 -c 1 -i 44 -a 1 -x {0.0 1.1 7 ------- null}
h -t 0.58256 -s 0 -d 1 -p tcp -e 1040 -c 1 -i 44 -a 1 -x {0.0 1.1 -1 ------- null}
r -t 0.58424 -s 0 -d 1 -p tcp -e 1040 -c 1 -i 34 -a 1 -x {0.0 1.1 5 ------- null}
+ -t 0.58424 -s 1 -d 0 -p ack -e 40 -c 1 -i 50 -a 1 -x {1.1 0.0 5 ------- null}
- -t 0.58424 -s 1 -d 0 -p ack -e 40 -c 1 -i 50 -a 1 -x {1.1 0.0 5 ------- null}
h -t 0.58424 -s 1 -d 0 -p ack -e 40 -c 1 -i 50 -a 1 -x {1.1 0.0 -1 ------- null}
r -t 0.58624 -s 1 -d 0 -p ack -e 40 -c 1 -i 43 -a 1 -x {1.1 0.0 4 ------- null}
+ -t 0.58624 -s 0 -d 1 -p tcp -e 1040 -c 1 -i 51 -a 1 -x {0.0 1.1 9 ------- null}
r -t 0.58832 -s 3 -d 1 -p tcp -e 1040 -c 6 -i 42 -a 6 -x {3.1 1.2 2 ------- null}
+ -t 0.58832 -s 1 -d 3 -p ack -e 40 -c 6 -i 52 -a 6 -x {1.2 3.1 2 ------- null}
- -t 0.58832 -s 1 -d 3 -p ack -e 40 -c 6 -i 52 -a 6 -x {1.2 3.1 2 ------- null}
h -t 0.58832 -s 1 -d 3 -p ack -e 40 -c 6 -i 52 -a 6 -x {1.2 3.1 -1 ------- null}
r -t 0.58864 -s 2 -d 0 -p ack -e 40 -c 5 -i 46 -a 5 -x {2.2 0.1 2 ------- null}
r -t 0.58864 -s 3 -d 2 -p ack -e 40 -c 3 -i 47 -a 3 -x {3.2 2.0 3 ------- null}
r -t 0.58864 -s 2 -d 1 -p ack -e 40 -c 2 -i 48 -a 2 -x {2.1 1.0 4 ------- null}
+ -t 0.59 -s 2 -d 3 -p tcp -e 1040 -c 3 -i 53 -a 3 -x {2.0 3.2 4 ------- null}
- -t 0.59 -s 2 -d 3 -p tcp -e 1040 -c 3 -i 53 -a 3 -x {2.0 3.2 4 ------- null}
h -t 0.59 -s 2 -d 3 -p tcp -e 1040 -c 3 -i 53 -a 3 -x {2.0 3.2 -1 ------- null}
+ -t 0.59 -s 0 -d 1 -p tcp -e 1040 -c 1 -i 54 -a 1 -x {0.0 1.1 10 ------- null}
- -t 0.59088 -s 0 -d 1 -p tcp -e 1040 -c 1 -i 45 -a 1 -x {0.0 1.1 8 ------- null}
h -t 0.59088 -s 0 -d 1 -p tcp -e 1040 -c 1 -i 45 -a 1 -x {0.0 1.1 -1 ------- null}
r -t 0.59256 -s 0 -d 1 -p tcp -e 1040 -c 1 -i 35 -a 1 -x {0.0 1.1 6 ------- null}
+ -t 0.59256 -s 1 -d 0 -p ack -e 40 -c 1 -i 55 -a 1 -x {1.1 0.0 6 ------- null}
- -t 0.59256 -s 1 -d 0 -p ack -e 40 -c 1 -i 55 -a 1 -x {1.1 0.0 6 ------- null}
h -t 0.59256 -s 1 -d 0 -p ack -e 40 -c 1 -i 55 -a 1 -x {1.1 0.0 -1 ------- null}
r -t 0.59456 -s 1 -d 0 -p ack -e 40 -c 1 -i 50 -a 1 -x {1.1 0.0 5 ------- null}
r -t 0.59832 -s 1 -d 2 -p tcp -e 1040 -c 2 -i 49 -a 2 -x {1.0 2.1 5 ------- null}
+ -t 0.59832 -s 2 -d 1 -p ack -e 40 -c 2 -i 56 -a 2 -x {2.1 1.0 5 ------- null}
- -t 0.59832 -s 2 -d 1 -p ack -e 40 -c 2 -i 56 -a 2 -x {2.1 1.0 5 ------- null}
h -t 0.59832 -s 2 -d 1 -p ack -e 40 -c 2 -i 56 -a 2 -x {2.1 1.0 -1 ------- null}
r -t 0.59864 -s 1 -d 3 -p ack -e 40 -c 6 -i 52 -a 6 -x {1.2 3.1 2 ------- null}
- -t 0.5992 -s 0 -d 1 -p tcp -e 1040 -c 1 -i 51 -a 1 -x {0.0 1.1 9 ------- null}
h -t 0.5992 -s 0 -d 1 -p tcp -e 1040 -c 1 -i 51 -a 1 -x {0.0 1.1 -1 ------- null}
+ -t 0.6 -s 3 -d 0 -p tcp -e 1040 -c 4 -i 57 -a 4 -x {3.0 0.2 3 ------- null}
- -t 0.6 -s 3 -d 0 -p tcp -e 1040 -c 4 -i 57 -a 4 -x {3.0 0.2 3 ------- null}
h -t 0.6 -s 3 -d 0 -p tcp -e 1040 -c 4 -i 57 -a 4 -x {3.0 0.2 -1 ------- null}
+ -t 0.6 -s 1 -d 2 -p tcp -e 1040 -c 2 -i 58 -a 2 -x {1.0 2.1 6 ------- null}
- -t 0.6 -s 1 -d 2 -p tcp -e 1040 -c 2 -i 58 -a 2 -x {1.0 2.1 6 ------- null}
h -t 0.6 -s 1 -d 2 -p tcp -e 1040 -c 2 -i 58 -a 2 -x {1.0 2.1 -1 ------- null}
+ -t 0.6 -s 0 -d 1 -p tcp -e 1040 -c 1 -i 59 -a 1 -x {0.0 1.1 11 ------- null}
r -t 0.60088 -s 0 -d 1 -p tcp -e 1040 -c 1 -i 44 -a 1 -x {0.0 1.1 7 ------- null}
+ -t 0.60088 -s 1 -d 0 -p ack -e 40 -c 1 -i 60 -a 1 -x {1.1 0.0 7 ------- null}
- -t 0.60088 -s 1 -d 0 -p ack -e 40 -c 1 -i 60 -a 1 -x {1.1 0.0 7 ------- null}
h -t 0.60088 -s 1 -d 0 -p ack -e 40 -c 1 -i 60 -a 1 -x {1.1 0.0 -1 ------- null}
r -t 0.60288 -s 1 -d 0 -p ack -e 40 -c 1 -i 55 -a 1 -x {1.1 0.0 6 ------- null}
- -t 0.60752 -s 0 -d 1 -p tcp -e 1040 -c 1 -i 54 -a 1 -x {0.0 1.1 10 ------- null}
h -t 0.60752 -s 0 -d 1 -p tcp -e 1040 -c 1 -i 54 -a 1 -x {0.0 1.1 -1 ------- null}
r -t 0.60832 -s 2 -d 3 -p tcp -e 1040 -c 3 -i 53 -a 3 -x {2.0 3.2 4 ------- null}
+ -t 0.60832 -s 3 -d 2 -p ack -e 40 -c 3 -i 61 -a 3 -x {3.2 2.0 4 ------- null}
- -t 0.60832 -s 3 -d 2 -p ack -e 40 -c 3 -i 61 -a 3 -x {3.2 2.0 4 ------- null}
h -t 0.60832 -s 3 -d 2 -p ack -e 40 -c 3 -i 61 -a 3 -x {3.2 2.0 -1 ------- null}
r -t 0.60864 -s 2 -d 1 -p ack -e 40 -c 2 -i 56 -a 2 -x {2.1 1.0 5 ------- null}
r -t 0.6092 -s 0 -d 1 -p tcp -e 1040 -c 1 -i 45 -a 1 -x {0.0 1.1 8 ------- null}
+ -t 0.6092 -s 1 -d 0 -p ack -e 40 -c 1 -i 62 -a 1 -x {1.1 0.0 8 ------- null}
- -t 0.6092 -s 1 -d 0 -p ack -e 40 -c 1 -i 62 -a 1 -x {1.1 0.0 8 ------- null}
h -t 0.6092 -s 1 -d 0 -p ack -e 40 -c 1 -i 62 -a 1 -x {1.1 0.0 -1 ------- null}
+ -t 0.61 -s 0 -d 1 -p tcp -e 1040 -c 1 -i 63 -a 1 -x {0.0 1.1 12 ------- null}
r -t 0.6112 -s 1 -d 0 -p ack -e 40 -c 1 -i 60 -a 1 -x {1.1 0.0 7 ------- null}
- -t 0.61584 -s 0 -d 1 -p tcp -e 1040 -c 1 -i 59 -a 1 -x {0.0 1.1 11 ------- null}
h -t 0.61584 -s 0 -d 1 -p tcp -e 1040 -c 1 -i 59 -a 1 -x {0.0 1.1 -1 ------- null}
r -t 0.61752 -s 0 -d 1 -p tcp -e 1040 -c 1 -i 51 -a 1 -x {0.0 1.1 9 ------- null}
+ -t 0.61752 -s 1 -d 0 -p ack -e 40 -c 1 -i 64 -a 1 -x {1.1 0.0 9 ------- null}
- -t 0.61752 -s 1 -d 0 -p ack -e 40 -c 1 -i 64 -a 1 -x {1.1 0.0 9 ------- null}
h -t 0.61752 -s 1 -d 0 -p ack -e 40 -c 1 -i 64 -a 1 -x {1.1 0.0 -1 ------- null}
r -t 0.61832 -s 3 -d 0 -p tcp -e 1040 -c 4 -i 57 -a 4 -x {3.0 0.2 3 ------- null}
+ -t 0.61832 -s 0 -d 3 -p ack -e 40 -c 4 -i 65 -a 4 -x {0.2 3.0 3 ------- null}
- -t 0.61832 -s 0 -d 3 -p ack -e 40 -c 4 -i 65 -a 4 -x {0.2 3.0 3 ------- null}
h -t 0.61832 -s 0 -d 3 -p ack -e 40 -c 4 -i 65 -a 4 -x {0.2 3.0 -1 ------- null}
r -t 0.61832 -s 1 -d 2 -p tcp -e 1040 -c 2 -i 58 -a 2 -x {1.0 2.1 6 ------- null}
+ -t 0.61832 -s 2 -d 1 -p ack -e 40 -c 2 -i 66 -a 2 -x {2.1 1.0 6 ------- null}
- -t 0.61832 -s 2 -d 1 -p ack -e 40 -c 2 -i 66 -a 2 -x {2.1 1.0 6 ------- null}
h -t 0.61832 -s 2 -d 1 -p ack -e 40 -c 2 -i 66 -a 2 -x {2.1 1.0 -1 ------- null}
r -t 0.61864 -s 3 -d 2 -p ack -e 40 -c 3 -i 61 -a 3 -x {3.2 2.0 4 ------- null}
r -t 0.61952 -s 1 -d 0 -p ack -e 40 -c 1 -i 62 -a 1 -x {1.1 0.0 8 ------- null}
+ -t 0.62 -s 0 -d 2 -p tcp -e 1040 -c 5 -i 67 -a 5 -x {0.1 2.2 3 ------- null}
- -t 0.62 -s 0 -d 2 -p tcp -e 1040 -c 5 -i 67 -a 5 -x {0.1 2.2 3 ------- null}
h -t 0.62 -s 0 -d 2 -p tcp -e 1040 -c 5 -i 67 -a 5 -x {0.1 2.2 -1 ------- null}
+ -t 0.62 -s 2 -d 3 -p tcp -e 1040 -c 3 -i 68 -a 3 -x {2.0 3.2 5 ------- null}
- -t 0.62 -s 2 -d 3 -p tcp -e 1040 -c 3 -i 68 -a 3 -x {2.0 3.2 5 ------- null}
h -t 0.62 -s 2 -d 3 -p tcp -e 1040 -c 3 -i 68 -a 3 -x {2.0 3.2 -1 ------- null}
+ -t 0.62 -s 1 -d 2 -p tcp -e 1040 -c 2 -i 69 -a 2 -x {1.0 2.1 7 ------- null}
- -t 0.62 -s 1 -d 2 -p tcp -e 1040 -c 2 -i 69 -a 2 -x {1.0 2.1 7 ------- null}
h -t 0.62 -s 1 -d 2 -p tcp -e 1040 -c 2 -i 69 -a 2 -x {1.0 2.1 -1 ------- null}
+ -t 0.62 -s 0 -d 1 -p tcp -e 1040 -c 1 -i 70 -a 1 -x {0.0 1.1 13 ------- null}
- -t 0.62416 -s 0 -d 1 -p tcp -e 1040 -c 1 -i 63 -a 1 -x {0.0 1.1 12 ------- null}
h -t 0.62416 -s 0 -d 1 -p tcp -e 1040 -c 1 -i 63 -a 1 -x {0.0 1.1 -1 ------- null}
r -t 0.62584 -s 0 -d 1 -p tcp -e 1040 -c 1 -i 54 -a 1 -x {0.0 1.1 10 ------- null}
+ -t 0.62584 -s 1 -d 0 -p ack -e 40 -c 1 -i 71 -a 1 -x {1.1 0.0 10 ------- null}
- -t 0.62584 -s 1 -d 0 -p ack -e 40 -c 1 -i 71 -a 1 -x {1.1 0.0 10 ------- null}
h -t 0.62584 -s 1 -d 0 -p ack -e 40 -c 1 -i 71 -a 1 -x {1.1 0.0 -1 ------- null}
r -t 0.62784 -s 1 -d 0 -p ack -e 40 -c 1 -i 64 -a 1 -x {1.1 0.0 9 ------- null}
r -t 0.62864 -s 0 -d 3 -p ack -e 40 -c 4 -i 65 -a 4 -x {0.2 3.0 3 ------- null}
r -t 0.62864 -s 2 -d 1 -p ack -e 40 -c 2 -i 66 -a 2 -x {2.1 1.0 6 ------- null}
+ -t 0.63 -s 0 -d 1 -p tcp -e 1040 -c 1 -i 72 -a 1 -x {0.0 1.1 14 ------- null}
- -t 0.63248 -s 0 -d 1 -p tcp -e 1040 -c 1 -i 70 -a 1 -x {0.0 1.1 13 ------- null}
h -t 0.63248 -s 0 -d 1 -p tcp -e 1040 -c 1 -i 70 -a 1 -x {0.0 1.1 -1 ------- null}
r -t 0.63416 -s 0 -d 1 -p tcp -e 1040 -c 1 -i 59 -a 1 -x {0.0 1.1 11 ------- null}
+ -t 0.63416 -s 1 -d 0 -p ack -e 40 -c 1 -i 73 -a 1 -x {1.1 0.0 11 ------- null}
- -t 0.63416 -s 1 -d 0 -p ack -e 40 -c 1 -i 73 -a 1 -x {1.1 0.0 11 ------- null}
h -t 0.63416 -s 1 -d 0 -p ack -e 40 -c 1 -i 73 -a 1 -x {1.1 0.0 -1 ------- null}
r -t 0.63616 -s 1 -d 0 -p ack -e 40 -c 1 -i 71 -a 1 -x {1.1 0.0 10 ------- null}
r -t 0.63832 -s 0 -d 2 -p tcp -e 1040 -c 5 -i 67 -a 5 -x {0.1 2.2 3 ------- null}
+ -t 0.63832 -s 2 -d 0 -p ack -e 40 -c 5 -i 74 -a 5 -x {2.2 0.1 3 ------- null}
- -t 0.63832 -s 2 -d 0 -p ack -e 40 -c 5 -i 74 -a 5 -x {2.2 0.1 3 ------- null}
h -t 0.63832 -s 2 -d 0 -p ack -e 40 -c 5 -i 74 -a 5 -x {2.2 0.1 -1 ------- null}
r -t 0.63832 -s 2 -d 3 -p tcp -e 1040 -c 3 -i 68 -a 3 -x {2.0 3.2 5 ------- null}
+ -t 0.63832 -s 3 -d 2 -p ack -e 40 -c 3 -i 75 -a 3 -x {3.2 2.0 5 ------- null}
- -t 0.63832 -s 3 -d 2 -p ack -e 40 -c 3 -i 75 -a 3 -x {3.2 2.0 5 ------- null}
h -t 0.63832 -s 3 -d 2 -p ack -e 40 -c 3 -i 75 -a 3 -x {3.2 2.0 -1 ------- null}
r -t 0.63832 -s 1 -d 2 -p tcp -e 1040 -c 2 -i 69 -a 2 -x {1.0 2.1 7 ------- null}
+ -t 0.63832 -s 2 -d 1 -p ack -e 40 -c 2 -i 76 -a 2 -x {2.1 1.0 7 ------- null}
- -t 0.63832 -s 2 -d 1 -p ack -e 40 -c 2 -i 76 -a 2 -x {2.1 1.0 7 ------- null}
h -t 0.63832 -s 2 -d 1 -p ack -e 40 -c 2 -i 76 -a 2 -x {2.1 1.0 -1 ------- null}
+ -t 0.64 -s 3 -d 1 -p tcp -e 1040 -c 6 -i 77 -a 6 -x {3.1 1.2 3 ------- null}
- -t 0.64 -s 3 -d 1 -p tcp -e 1040 -c 6 -i 77 -a 6 -x {3.1 1.2 3 ------- null}
h -t 0.64 -s 3 -d 1 -p tcp -e 1040 -c 6 -i 77 -a 6 -x {3.1 1.2 -1 ------- null}
+ -t 0.64 -s 1 -d 2 -p tcp -e 1040 -c 2 -i 78 -a 2 -x {1.0 2.1 8 ------- null}
- -t 0.64 -s 1 -d 2 -p tcp -e 1040 -c 2 -i 78 -a 2 -x {1.0 2.1 8 ------- null}
h -t 0.64 -s 1 -d 2 -p tcp -e 1040 -c 2 -i 78 -a 2 -x {1.0 2.1 -1 ------- null}
+ -t 0.64 -s 0 -d 1 -p tcp -e 1040 -c 1 -i 79 -a 1 -x {0.0 1.1 15 ------- null}
- -t 0.6408 -s 0 -d 1 -p tcp -e 1040 -c 1 -i 72 -a 1 -x {0.0 1.1 14 ------- null}
h -t 0.6408 -s 0 -d 1 -p tcp -e 1040 -c 1 -i 72 -a 1 -x {0.0 1.1 -1 ------- null}
r -t 0.64248 -s 0 -d 1 -p tcp -e 1040 -c 1 -i 63 -a 1 -x {0.0 1.1 12 ------- null}
+ -t 0.64248 -s 1 -d 0 -p ack -e 40 -c 1 -i 80 -a 1 -x {1.1 0.0 12 ------- null}
- -t 0.64248 -s 1 -d 0 -p ack -e 40 -c 1 -i 80 -a 1 -x {1.1 0.0 12 ------- null}
h -t 0.64248 -s 1 -d 0 -p ack -e 40 -c 1 -i 80 -a 1 -x {1.1 0.0 -1 ------- null}
r -t 0.64448 -s 1 -d 0 -p ack -e 40 -c 1 -i 73 -a 1 -x {1.1 0.0 11 ------- null}
r -t 0.64864 -s 2 -d 0 -p ack -e 40 -c 5 -i 74 -a 5 -x {2.2 0.1 3 ------- null}
r -t 0.64864 -s 3 -d 2 -p ack -e 40 -c 3 -i 75 -a 3 -x {3.2 2.0 5 ------- null}
r -t 0.64864 -s 2 -d 1 -p ack -e 40 -c 2 -i 76 -a 2 -x {2.1 1.0 7 ------- null}
- -t 0.64912 -s 0 -d 1 -p tcp -e 1040 -c 1 -i 79 -a 1 -x {0.0 1.1 15 ------- null}
h -t 0.64912 -s 0 -d 1 -p tcp -e 1040 -c 1 -i 79 -a 1 -x {0.0 1.1 -1 ------- null}
+ -t 0.65 -s 3 -d 0 -p tcp -e 1040 -c 4 -i 81 -a 4 -x {3.0 0.2 4 ------- null}
- -t 0.65 -s 3 -d 0 -p tcp -e 1040 -c 4 -i 81 -a 4 -x {3.0 0.2 4 ------- null}
h -t 0.65 -s 3 -d 0 -p tcp -e 1040 -c 4 -i 81 -a 4 -x {3.0 0.2 -1 ------- null}
+ -t 0.65 -s 2 -d 3 -p tcp -e 1040 -c 3 -i 82 -a 3 -x {2.0 3.2 6 ------- null}
- -t 0.65 -s 2 -d 3 -p tcp -e 1040 -c 3 -i 82 -a 3 -x {2.0 3.2 6 ------- null}
h -t 0.65 -s 2 -d 3 -p tcp -e 1040 -c 3 -i 82 -a 3 -x {2.0 3.2 -1 ------- null}
+ -t 0.65 -s 0 -d 1 -p tcp -e 1040 -c 1 -i 83 -a 1 -x {0.0 1.1 16 ------- null}
r -t 0.6508 -s 0 -d 1 -p tcp -e 1040 -c 1 -i 70 -a 1 -x {0.0 1.1 13 ------- null}
+ -t 0.6508 -s 1 -d 0 -p ack -e 40 -c 1 -i 84 -a 1 -x {1.1 0.0 13 ------- null}
- -t 0.6508 -s 1 -d 0 -p ack -e 40 -c 1 -i 84 -a 1 -x {1.1 0.0 13 ------- null}
h -t 0.6508 -s 1 -d 0 -p ack -e 40 -c 1 -i 84 -a 1 -x {1.1 0.0 -1 ------- null}
r -t 0.6528 -s 1 -d 0 -p ack -e 40 -c 1 -i 80 -a 1 -x {1.1 0.0 12 ------- null}
- -t 0.65744 -s 0 -d 1 -p tcp -e 1040 -c 1 -i 83 -a 1 -x {0.0 1.1 16 ------- null}
h -t 0.65744 -s 0 -d 1 -p tcp -e 1040 -c 1 -i 83 -a 1 -x {0.0 1.1 -1 ------- null}
r -t 0.65832 -s 3 -d 1 -p tcp -e 1040 -c 6 -i 77 -a 6 -x {3.1 1.2 3 ------- null}
+ -t 0.65832 -s 1 -d 3 -p ack -e 40 -c 6 -i 85 -a 6 -x {1.2 3.1 3 ------- null}
- -t 0.65832 -s 1 -d 3 -p ack -e 40 -c 6 -i 85 -a 6 -x {1.2 3.1 3 ------- null}
h -t 0.65832 -s 1 -d 3 -p ack -e 40 -c 6 -i 85 -a 6 -x {1.2 3.1 -1 ------- null}
r -t 0.65832 -s 1 -d 2 -p tcp -e 1040 -c 2 -i 78 -a 2 -x {1.0 2.1 8 ------- null}
+ -t 0.65832 -s 2 -d 1 -p ack -e 40 -c 2 -i 86 -a 2 -x {2.1 1.0 8 ------- null}
- -t 0.65832 -s 2 -d 1 -p ack -e 40 -c 2 -i 86 -a 2 -x {2.1 1.0 8 ------- null}
h -t 0.65832 -s 2 -d 1 -p ack -e 40 -c 2 -i 86 -a 2 -x {2.1 1.0 -1 ------- null}
r -t 0.65912 -s 0 -d 1 -p tcp -e 1040 -c 1 -i 72 -a 1 -x {0.0 1.1 14 ------- null}
+ -t 0.65912 -s 1 -d 0 -p ack -e 40 -c 1 -i 87 -a 1 -x {1.1 0.0 14 ------- null}
- -t 0.65912 -s 1 -d 0 -p ack -e 40 -c 1 -i 87 -a 1 -x {1.1 0.0 14 ------- null}
h -t 0.65912 -s 1 -d 0 -p ack -e 40 -c 1 -i 87 -a 1 -x {1.1 0.0 -1 ------- null}
+ -t 0.66 -s 1 -d 2 -p tcp -e 1040 -c 2 -i 88 -a 2 -x {1.0 2.1 9 ------- null}
- -t 0.66 -s 1 -d 2 -p tcp -e 1040 -c 2 -i 88 -a 2 -x {1.0 2.1 9 ------- null}
h -t 0.66 -s 1 -d 2 -p tcp -e 1040 -c 2 -i 88 -a 2 -x {1.0 2.1 -1 ------- null}
+ -t 0.66 -s 0 -d 1 -p tcp -e 1040 -c 1 -i 89 -a 1 -x {0.0 1.1 17 ------- null}
r -t 0.66112 -s 1 -d 0 -p ack -e 40 -c 1 -i 84 -a 1 -x {1.1 0.0 13 ------- null}
- -t 0.66576 -s 0 -d 1 -p tcp -e 1040 -c 1 -i 89 -a 1 -x {0.0 1.1 17 ------- null}
h -t 0.66576 -s 0 -d 1 -p tcp -e 1040 -c 1 -i 89 -a 1 -x {0.0 1.1 -1 ------- null}
r -t 0.66744 -s 0 -d 1 -p tcp -e 1040 -c 1 -i 79 -a 1 -x {0.0 1.1 15 ------- null}
+ -t 0.66744 -s 1 -d 0 -p ack -e 40 -c 1 -i 90 -a 1 -x {1.1 0.0 15 ------- null}
- -t 0.66744 -s 1 -d 0 -p ack -e 40 -c 1 -i 90 -a 1 -x {1.1 0.0 15 ------- null}
h -t 0.66744 -s 1 -d 0 -p ack -e 40 -c 1 -i 90 -a 1 -x {1.1 0.0 -1 ------- null}
r -t 0.66832 -s 3 -d 0 -p tcp -e 1040 -c 4 -i 81 -a 4 -x {3.0 0.2 4 ------- null}
+ -t 0.66832 -s 0 -d 3 -p ack -e 40 -c 4 -i 91 -a 4 -x {0.2 3.0 4 ------- null}
- -t 0.66832 -s 0 -d 3 -p ack -e 40 -c 4 -i 91 -a 4 -x {0.2 3.0 4 ------- null}
h -t 0.66832 -s 0 -d 3 -p ack -e 40 -c 4 -i 91 -a 4 -x {0.2 3.0 -1 ------- null}
r -t 0.66832 -s 2 -d 3 -p tcp -e 1040 -c 3 -i 82 -a 3 -x {2.0 3.2 6 ------- null}
+ -t 0.66832 -s 3 -d 2 -p ack -e 40 -c 3 -i 92 -a 3 -x {3.2 2.0 6 ------- null}
- -t 0.66832 -s 3 -d 2 -p ack -e 40 -c 3 -i 92 -a 3 -x {3.2 2.0 6 ------- null}
h -t 0.66832 -s 3 -d 2 -p ack -e 40 -c 3 -i 92 -a 3 -x {3.2 2.0 -1 ------- null}
r -t 0.66864 -s 1 -d 3 -p ack -e 40 -c 6 -i 85 -a 6 -x {1.2 3.1 3 ------- null}