s 1.000000000 _0_ AGT  --- 0 tcp 40 [0 0 0 0] ------- [0:0 3:0 32 0] [0 0] 0 0
r 1.000000000 _0_ RTR  --- 0 tcp 40 [0 0 0 0] ------- [0:0 3:0 32 0] [0 0] 0 0
s 1.000000000 _0_ RTR  --- 0 AODV 48 [0 0 0 0] ------- [0:255 -1:255 30 0] [0x2 1 1 [3 0] [0 4]] (REQUEST)
s 1.000635000 _0_ MAC  --- 0 AODV 106 [0 ffffffff 0 800] ------- [0:255 -1:255 30 0] [0x2 1 1 [3 0] [0 4]] (REQUEST)
r 1.001483833 _5_ MAC  --- 0 AODV 48 [0 ffffffff 0 800] ------- [0:255 -1:255 30 0] [0x2 1 1 [3 0] [0 4]] (REQUEST)
r 1.001483833 _4_ MAC  --- 0 AODV 48 [0 ffffffff 0 800] ------- [0:255 -1:255 30 0] [0x2 1 1 [3 0] [0 4]] (REQUEST)
r 1.001483833 _3_ MAC  --- 0 AODV 48 [0 ffffffff 0 800] ------- [0:255 -1:255 30 0] [0x2 1 1 [3 0] [0 4]] (REQUEST)
r 1.001508833 _5_ RTR  --- 0 AODV 48 [0 ffffffff 0 800] ------- [0:255 -1:255 30 0] [0x2 1 1 [3 0] [0 4]] (REQUEST)
r 1.001508833 _4_ RTR  --- 0 AODV 48 [0 ffffffff 0 800] ------- [0:255 -1:255 30 0] [0x2 1 1 [3 0] [0 4]] (REQUEST)
r 1.001508833 _3_ RTR  --- 0 AODV 48 [0 ffffffff 0 800] ------- [0:255 -1:255 30 0] [0x2 1 1 [3 0] [0 4]] (REQUEST)
s 1.001508833 _3_ RTR  --- 0 AODV 44 [0 0 0 0] ------- [3:255 0:255 30 0] [0x4 1 [3 4] 10.000000] (REPLY)
s 1.001723833 _3_ MAC  --- 0 ARP 86 [0 ffffffff 3 806] ------- [REQUEST 3/3 0/0]
r 1.002412360 _4_ MAC  --- 0 ARP 28 [0 ffffffff 3 806] ------- [REQUEST 3/3 0/0]
r 1.002412360 _5_ MAC  --- 0 ARP 28 [0 ffffffff 3 806] ------- [REQUEST 3/3 0/0]
r 1.002412540 _2_ MAC  --- 0 ARP 28 [0 ffffffff 3 806] ------- [REQUEST 3/3 0/0]
r 1.002412540 _1_ MAC  --- 0 ARP 28 [0 ffffffff 3 806] ------- [REQUEST 3/3 0/0]
r 1.002412667 _0_ MAC  --- 0 ARP 28 [0 ffffffff 3 806] ------- [REQUEST 3/3 0/0]
s 1.002582667 _0_ MAC  --- 0 RTS 44 [52e 3 0 0] 
r 1.002935500 _3_ MAC  --- 0 RTS 44 [52e 3 0 0] 
s 1.002945500 _3_ MAC  --- 0 CTS 38 [3f4 0 0 0] 
r 1.003250333 _0_ MAC  --- 0 CTS 38 [3f4 0 0 0] 
s 1.003260333 _0_ MAC  --- 0 ARP 86 [13a 3 0 806] ------- [REPLY 0/0 3/3]
r 1.003949167 _3_ MAC  --- 0 ARP 28 [13a 3 0 806] ------- [REPLY 0/0 3/3]
s 1.003959167 _3_ MAC  --- 0 ACK 38 [0 0 0 0] 
r 1.004264000 _0_ MAC  --- 0 ACK 38 [0 0 0 0] 
s 1.004393167 _3_ MAC  --- 0 RTS 44 [5ae 0 3 0] 
r 1.004746000 _0_ MAC  --- 0 RTS 44 [5ae 0 3 0] 
s 1.004756000 _0_ MAC  --- 0 CTS 38 [474 3 0 0] 
r 1.005060833 _3_ MAC  --- 0 CTS 38 [474 3 0 0] 
s 1.005070833 _3_ MAC  --- 0 AODV 102 [13a 0 3 800] ------- [3:255 0:255 30 0] [0x4 1 [3 4] 10.000000] (REPLY)
r 1.005887667 _0_ MAC  --- 0 AODV 44 [13a 0 3 800] ------- [3:255 0:255 30 0] [0x4 1 [3 4] 10.000000] (REPLY)
s 1.005897667 _0_ MAC  --- 0 ACK 38 [0 3 0 0] 
r 1.005912667 _0_ RTR  --- 0 AODV 44 [13a 0 3 800] ------- [3:255 0:255 30 0] [0x4 1 [3 4] 10.000000] (REPLY)
s 1.005912667 _0_ RTR  --- 0 tcp 40 [0 0 0 0] ------- [0:0 3:0 30 3] [0 0] 0 0
s 1.005920567 _5_ RTR  --- 0 AODV 48 [0 ffffffff 0 800] ------- [5:255 -1:255 29 0] [0x2 2 1 [3 0] [0 4]] (REQUEST)
r 1.006202500 _3_ MAC  --- 0 ACK 38 [0 3 0 0] 
s 1.006431667 _0_ MAC  --- 0 RTS 44 [58e 3 0 0] 
r 1.006784500 _3_ MAC  --- 0 RTS 44 [58e 3 0 0] 
s 1.006794500 _3_ MAC  --- 0 CTS 38 [454 0 0 0] 
r 1.007099333 _0_ MAC  --- 0 CTS 38 [454 0 0 0] 
s 1.007109333 _0_ MAC  --- 0 tcp 98 [13a 3 0 800] ------- [0:0 3:0 30 3] [0 0] 0 0
r 1.007894167 _3_ MAC  --- 0 tcp 40 [13a 3 0 800] ------- [0:0 3:0 30 3] [0 0] 1 0
s 1.007904167 _3_ MAC  --- 0 ACK 38 [0 0 0 0] 
r 1.007919167 _3_ AGT  --- 0 tcp 40 [13a 3 0 800] ------- [0:0 3:0 30 3] [0 0] 1 0
s 1.007919167 _3_ AGT  --- 1 ack 40 [0 0 0 0] ------- [3:0 0:0 32 0] [0 0] 0 0
r 1.007919167 _3_ RTR  --- 1 ack 40 [0 0 0 0] ------- [3:0 0:0 32 0] [0 0] 0 0
s 1.007919167 _3_ RTR  --- 1 ack 40 [0 0 0 0] ------- [3:0 0:0 30 0] [0 0] 0 0
r 1.008209000 _0_ MAC  --- 0 ACK 38 [0 0 0 0] 
s 1.008358167 _3_ MAC  --- 0 RTS 44 [58e 0 3 0] 
r 1.008711000 _0_ MAC  --- 0 RTS 44 [58e 0 3 0] 
s 1.008721000 _0_ MAC  --- 0 CTS 38 [454 3 0 0] 
r 1.009025833 _3_ MAC  --- 0 CTS 38 [454 3 0 0] 
s 1.009035833 _3_ MAC  --- 1 ack 98 [13a 0 3 800] ------- [3:0 0:0 30 0] [0 0] 0 0
s 1.009500388 _4_ RTR  --- 0 AODV 48 [0 ffffffff 0 800] ------- [4:255 -1:255 29 0] [0x2 2 1 [3 0] [0 4]] (REQUEST)
r 1.009820667 _0_ MAC  --- 1 ack 40 [13a 0 3 800] ------- [3:0 0:0 30 0] [0 0] 1 0
s 1.009830667 _0_ MAC  --- 0 ACK 38 [0 3 0 0] 
r 1.009845667 _0_ AGT  --- 1 ack 40 [13a 0 3 800] ------- [3:0 0:0 30 0] [0 0] 1 0
s 1.009845667 _0_ AGT  --- 2 tcp 1040 [0 0 0 0] ------- [0:0 3:0 32 0] [1 0] 0 0
r 1.009845667 _0_ RTR  --- 2 tcp 1040 [0 0 0 0] ------- [0:0 3:0 32 0] [1 0] 0 0
s 1.009845667 _0_ AGT  --- 3 tcp 1040 [0 0 0 0] ------- [0:0 3:0 32 0] [2 0] 0 0
r 1.009845667 _0_ RTR  --- 3 tcp 1040 [0 0 0 0] ------- [0:0 3:0 32 0] [2 0] 0 0
s 1.009845667 _0_ RTR  --- 2 tcp 1040 [0 0 0 0] ------- [0:0 3:0 30 3] [1 0] 0 0
s 1.009845667 _0_ RTR  --- 3 tcp 1040 [0 0 0 0] ------- [0:0 3:0 30 3] [2 0] 0 0
r 1.010135500 _3_ MAC  --- 0 ACK 38 [0 3 0 0] 
s 1.010225500 _4_ MAC  --- 0 AODV 106 [0 ffffffff 4 800] ------- [4:255 -1:255 29 0] [0x2 2 1 [3 0] [0 4]] (REQUEST)
r 1.011074027 _3_ MAC  --- 0 AODV 48 [0 ffffffff 4 800] ------- [4:255 -1:255 29 0] [0x2 2 1 [3 0] [0 4]] (REQUEST)
r 1.011074167 _2_ MAC  --- 0 AODV 48 [0 ffffffff 4 800] ------- [4:255 -1:255 29 0] [0x2 2 1 [3 0] [0 4]] (REQUEST)
r 1.011074333 _0_ MAC  --- 0 AODV 48 [0 ffffffff 4 800] ------- [4:255 -1:255 29 0] [0x2 2 1 [3 0] [0 4]] (REQUEST)
r 1.011099027 _3_ RTR  --- 0 AODV 48 [0 ffffffff 4 800] ------- [4:255 -1:255 29 0] [0x2 2 1 [3 0] [0 4]] (REQUEST)
r 1.011099167 _2_ RTR  --- 0 AODV 48 [0 ffffffff 4 800] ------- [4:255 -1:255 29 0] [0x2 2 1 [3 0] [0 4]] (REQUEST)
r 1.011099333 _0_ RTR  --- 0 AODV 48 [0 ffffffff 4 800] ------- [4:255 -1:255 29 0] [0x2 2 1 [3 0] [0 4]] (REQUEST)
s 1.011244333 _0_ MAC  --- 0 RTS 44 [24ce 3 0 0] 
r 1.011597167 _3_ MAC  --- 0 RTS 44 [24ce 3 0 0] 
s 1.011607167 _3_ MAC  --- 0 CTS 38 [2394 0 0 0] 
r 1.011912000 _0_ MAC  --- 0 CTS 38 [2394 0 0 0] 
s 1.011922000 _0_ MAC  --- 2 tcp 1098 [13a 3 0 800] ------- [0:0 3:0 30 3] [1 0] 0 0
s 1.012237249 _2_ RTR  --- 0 AODV 48 [0 ffffffff 4 800] ------- [2:255 -1:255 28 0] [0x2 3 1 [3 0] [0 4]] (REQUEST)
r 1.020706833 _3_ MAC  --- 2 tcp 1040 [13a 3 0 800] ------- [0:0 3:0 30 3] [1 0] 1 0
s 1.020716833 _3_ MAC  --- 0 ACK 38 [0 0 0 0] 
r 1.020731833 _3_ AGT  --- 2 tcp 1040 [13a 3 0 800] ------- [0:0 3:0 30 3] [1 0] 1 0
s 1.020731833 _3_ AGT  --- 4 ack 40 [0 0 0 0] ------- [3:0 0:0 32 0] [1 0] 0 0
r 1.020731833 _3_ RTR  --- 4 ack 40 [0 0 0 0] ------- [3:0 0:0 32 0] [1 0] 0 0
s 1.020731833 _3_ RTR  --- 4 ack 40 [0 0 0 0] ------- [3:0 0:0 30 0] [1 0] 0 0
r 1.021021667 _0_ MAC  --- 0 ACK 38 [0 0 0 0] 
s 1.021151360 _5_ MAC  --- 0 AODV 106 [0 ffffffff 5 800] ------- [5:255 -1:255 29 0] [0x2 2 1 [3 0] [0 4]] (REQUEST)
r 1.021999887 _3_ MAC  --- 0 AODV 48 [0 ffffffff 5 800] ------- [5:255 -1:255 29 0] [0x2 2 1 [3 0] [0 4]] (REQUEST)
r 1.022000027 _1_ MAC  --- 0 AODV 48 [0 ffffffff 5 800] ------- [5:255 -1:255 29 0] [0x2 2 1 [3 0] [0 4]] (REQUEST)
r 1.022000194 _0_ MAC  --- 0 AODV 48 [0 ffffffff 5 800] ------- [5:255 -1:255 29 0] [0x2 2 1 [3 0] [0 4]] (REQUEST)
r 1.022024887 _3_ RTR  --- 0 AODV 48 [0 ffffffff 5 800] ------- [5:255 -1:255 29 0] [0x2 2 1 [3 0] [0 4]] (REQUEST)
r 1.022025027 _1_ RTR  --- 0 AODV 48 [0 ffffffff 5 800] ------- [5:255 -1:255 29 0] [0x2 2 1 [3 0] [0 4]] (REQUEST)
r 1.022025194 _0_ RTR  --- 0 AODV 48 [0 ffffffff 5 800] ------- [5:255 -1:255 29 0] [0x2 2 1 [3 0] [0 4]] (REQUEST)
s 1.022130194 _0_ MAC  --- 0 RTS 44 [24ce 3 0 0] 
r 1.022483027 _3_ MAC  --- 0 RTS 44 [24ce 3 0 0] 
s 1.022493027 _3_ MAC  --- 0 CTS 38 [2394 0 0 0] 
r 1.022797860 _0_ MAC  --- 0 CTS 38 [2394 0 0 0] 
s 1.022807860 _0_ MAC  --- 3 tcp 1098 [13a 3 0 800] ------- [0:0 3:0 30 3] [2 0] 0 0
s 1.022966416 _1_ RTR  --- 0 AODV 48 [0 ffffffff 5 800] ------- [1:255 -1:255 28 0] [0x2 3 1 [3 0] [0 4]] (REQUEST)
r 1.031592694 _3_ MAC  --- 3 tcp 1040 [13a 3 0 800] ------- [0:0 3:0 30 3] [2 0] 1 0
s 1.031602694 _3_ MAC  --- 0 ACK 38 [0 0 0 0] 
r 1.031617694 _3_ AGT  --- 3 tcp 1040 [13a 3 0 800] ------- [0:0 3:0 30 3] [2 0] 1 0
s 1.031617694 _3_ AGT  --- 5 ack 40 [0 0 0 0] ------- [3:0 0:0 32 0] [2 0] 0 0
r 1.031617694 _3_ RTR  --- 5 ack 40 [0 0 0 0] ------- [3:0 0:0 32 0] [2 0] 0 0
s 1.031617694 _3_ RTR  --- 5 ack 40 [0 0 0 0] ------- [3:0 0:0 30 0] [2 0] 0 0
r 1.031907527 _0_ MAC  --- 0 ACK 38 [0 0 0 0] 
s 1.032176694 _3_ MAC  --- 0 RTS 44 [58e 0 3 0] 
r 1.032529527 _0_ MAC  --- 0 RTS 44 [58e 0 3 0] 
s 1.032539527 _0_ MAC  --- 0 CTS 38 [454 3 0 0] 
r 1.032844360 _3_ MAC  --- 0 CTS 38 [454 3 0 0] 
s 1.032854360 _3_ MAC  --- 4 ack 98 [13a 0 3 800] ------- [3:0 0:0 30 0] [1 0] 0 0
r 1.033639194 _0_ MAC  --- 4 ack 40 [13a 0 3 800] ------- [3:0 0:0 30 0] [1 0] 1 0
s 1.033649194 _0_ MAC  --- 0 ACK 38 [0 3 0 0] 
r 1.033664194 _0_ AGT  --- 4 ack 40 [13a 0 3 800] ------- [3:0 0:0 30 0] [1 0] 1 0
s 1.033664194 _0_ AGT  --- 6 tcp 1040 [0 0 0 0] ------- [0:0 3:0 32 0] [3 0] 0 0
r 1.033664194 _0_ RTR  --- 6 tcp 1040 [0 0 0 0] ------- [0:0 3:0 32 0] [3 0] 0 0
s 1.033664194 _0_ AGT  --- 7 tcp 1040 [0 0 0 0] ------- [0:0 3:0 32 0] [4 0] 0 0
r 1.033664194 _0_ RTR  --- 7 tcp 1040 [0 0 0 0] ------- [0:0 3:0 32 0] [4 0] 0 0
s 1.033664194 _0_ RTR  --- 6 tcp 1040 [0 0 0 0] ------- [0:0 3:0 30 3] [3 0] 0 0
s 1.033664194 _0_ RTR  --- 7 tcp 1040 [0 0 0 0] ------- [0:0 3:0 30 3] [4 0] 0 0
r 1.033954027 _3_ MAC  --- 0 ACK 38 [0 3 0 0] 
s 1.034024027 _3_ MAC  --- 0 RTS 44 [58e 0 3 0] 
r 1.034376860 _0_ MAC  --- 0 RTS 44 [58e 0 3 0] 
s 1.034386860 _0_ MAC  --- 0 CTS 38 [454 3 0 0] 
r 1.034691694 _3_ MAC  --- 0 CTS 38 [454 3 0 0] 
s 1.034701694 _3_ MAC  --- 5 ack 98 [13a 0 3 800] ------- [3:0 0:0 30 0] [2 0] 0 0
r 1.035486527 _0_ MAC  --- 5 ack 40 [13a 0 3 800] ------- [3:0 0:0 30 0] [2 0] 1 0
s 1.035496527 _0_ MAC  --- 0 ACK 38 [0 3 0 0] 
r 1.035511527 _0_ AGT  --- 5 ack 40 [13a 0 3 800] ------- [3:0 0:0 30 0] [2 0] 1 0
s 1.035511527 _0_ AGT  --- 8 tcp 1040 [0 0 0 0] ------- [0:0 3:0 32 0] [5 0] 0 0
r 1.035511527 _0_ RTR  --- 8 tcp 1040 [0 0 0 0] ------- [0:0 3:0 32 0] [5 0] 0 0
s 1.035511527 _0_ AGT  --- 9 tcp 1040 [0 0 0 0] ------- [0:0 3:0 32 0] [6 0] 0 0
r 1.035511527 _0_ RTR  --- 9 tcp 1040 [0 0 0 0] ------- [0:0 3:0 32 0] [6 0] 0 0
s 1.035511527 _0_ RTR  --- 8 tcp 1040 [0 0 0 0] ------- [0:0 3:0 30 3] [5 0] 0 0
s 1.035511527 _0_ RTR  --- 9 tcp 1040 [0 0 0 0] ------- [0:0 3:0 30 3] [6 0] 0 0
r 1.035801360 _3_ MAC  --- 0 ACK 38 [0 3 0 0] 
s 1.036050527 _0_ MAC  --- 0 RTS 44 [24ce 3 0 0] 
r 1.036403360 _3_ MAC  --- 0 RTS 44 [24ce 3 0 0] 
s 1.036413360 _3_ MAC  --- 0 CTS 38 [2394 0 0 0] 
r 1.036718194 _0_ MAC  --- 0 CTS 38 [2394 0 0 0] 
s 1.036728194 _0_ MAC  --- 6 tcp 1098 [13a 3 0 800] ------- [0:0 3:0 30 3] [3 0] 0 0
r 1.045513027 _3_ MAC  --- 6 tcp 1040 [13a 3 0 800] ------- [0:0 3:0 30 3] [3 0] 1 0
s 1.045523027 _3_ MAC  --- 0 ACK 38 [0 0 0 0] 
r 1.045538027 _3_ AGT  --- 6 tcp 1040 [13a 3 0 800] ------- [0:0 3:0 30 3] [3 0] 1 0
s 1.045538027 _3_ AGT  --- 10 ack 40 [0 0 0 0] ------- [3:0 0:0 32 0] [3 0] 0 0
r 1.045538027 _3_ RTR  --- 10 ack 40 [0 0 0 0] ------- [3:0 0:0 32 0] [3 0] 0 0
s 1.045538027 _3_ RTR  --- 10 ack 40 [0 0 0 0] ------- [3:0 0:0 30 0] [3 0] 0 0
r 1.045827860 _0_ MAC  --- 0 ACK 38 [0 0 0 0] 
s 1.045937027 _3_ MAC  --- 0 RTS 44 [58e 0 3 0] 
r 1.046289860 _0_ MAC  --- 0 RTS 44 [58e 0 3 0] 
s 1.046299860 _0_ MAC  --- 0 CTS 38 [454 3 0 0] 
r 1.046604694 _3_ MAC  --- 0 CTS 38 [454 3 0 0] 
s 1.046614694 _3_ MAC  --- 10 ack 98 [13a 0 3 800] ------- [3:0 0:0 30 0] [3 0] 0 0
r 1.047399527 _0_ MAC  --- 10 ack 40 [13a 0 3 800] ------- [3:0 0:0 30 0] [3 0] 1 0
s 1.047409527 _0_ MAC  --- 0 ACK 38 [0 3 0 0] 
r 1.047424527 _0_ AGT  --- 10 ack 40 [13a 0 3 800] ------- [3:0 0:0 30 0] [3 0] 1 0
s 1.047424527 _0_ AGT  --- 11 tcp 1040 [0 0 0 0] ------- [0:0 3:0 32 0] [7 0] 0 0
r 1.047424527 _0_ RTR  --- 11 tcp 1040 [0 0 0 0] ------- [0:0 3:0 32 0] [7 0] 0 0
s 1.047424527 _0_ AGT  --- 12 tcp 1040 [0 0 0 0] ------- [0:0 3:0 32 0] [8 0] 0 0
r 1.047424527 _0_ RTR  --- 12 tcp 1040 [0 0 0 0] ------- [0:0 3:0 32 0] [8 0] 0 0
s 1.047424527 _0_ RTR  --- 11 tcp 1040 [0 0 0 0] ------- [0:0 3:0 30 3] [7 0] 0 0
s 1.047424527 _0_ RTR  --- 12 tcp 1040 [0 0 0 0] ------- [0:0 3:0 30 3] [8 0] 0 0
r 1.047714360 _3_ MAC  --- 0 ACK 38 [0 3 0 0] 
s 1.048163527 _0_ MAC  --- 0 RTS 44 [24ce 3 0 0] 
r 1.048516360 _3_ MAC  --- 0 RTS 44 [24ce 3 0 0] 
s 1.048526360 _3_ MAC  --- 0 CTS 38 [2394 0 0 0] 
r 1.048831194 _0_ MAC  --- 0 CTS 38 [2394 0 0 0] 
s 1.048841194 _0_ MAC  --- 7 tcp 1098 [13a 3 0 800] ------- [0:0 3:0 30 3] [4 0] 0 0
r 1.057626027 _3_ MAC  --- 7 tcp 1040 [13a 3 0 800] ------- [0:0 3:0 30 3] [4 0] 1 0
s 1.057636027 _3_ MAC  --- 0 ACK 38 [0 0 0 0] 
r 1.057651027 _3_ AGT  --- 7 tcp 1040 [13a 3 0 800] ------- [0:0 3:0 30 3] [4 0] 1 0
s 1.057651027 _3_ AGT  --- 13 ack 40 [0 0 0 0] ------- [3:0 0:0 32 0] [4 0] 0 0
r 1.057651027 _3_ RTR  --- 13 ack 40 [0 0 0 0] ------- [3:0 0:0 32 0] [4 0] 0 0
s 1.057651027 _3_ RTR  --- 13 ack 40 [0 0 0 0] ------- [3:0 0:0 30 0] [4 0] 0 0
r 1.057940860 _0_ MAC  --- 0 ACK 38 [0 0 0 0] 
s 1.058080618 _2_ MAC  --- 0 AODV 106 [0 ffffffff 2 800] ------- [2:255 -1:255 28 0] [0x2 3 1 [3 0] [0 4]] (REQUEST)
r 1.058929284 _4_ MAC  --- 0 AODV 48 [0 ffffffff 2 800] ------- [2:255 -1:255 28 0] [0x2 3 1 [3 0] [0 4]] (REQUEST)
r 1.058929325 _3_ MAC  --- 0 AODV 48 [0 ffffffff 2 800] ------- [2:255 -1:255 28 0] [0x2 3 1 [3 0] [0 4]] (REQUEST)
r 1.058954284 _4_ RTR  --- 0 AODV 48 [0 ffffffff 2 800] ------- [2:255 -1:255 28 0] [0x2 3 1 [3 0] [0 4]] (REQUEST)
r 1.058954325 _3_ RTR  --- 0 AODV 48 [0 ffffffff 2 800] ------- [2:255 -1:255 28 0] [0x2 3 1 [3 0] [0 4]] (REQUEST)
s 1.059443618 _1_ MAC  --- 0 AODV 106 [0 ffffffff 1 800] ------- [1:255 -1:255 28 0] [0x2 3 1 [3 0] [0 4]] (REQUEST)
r 1.060292284 _5_ MAC  --- 0 AODV 48 [0 ffffffff 1 800] ------- [1:255 -1:255 28 0] [0x2 3 1 [3 0] [0 4]] (REQUEST)
r 1.060292325 _3_ MAC  --- 0 AODV 48 [0 ffffffff 1 800] ------- [1:255 -1:255 28 0] [0x2 3 1 [3 0] [0 4]] (REQUEST)
r 1.060317284 _5_ RTR  --- 0 AODV 48 [0 ffffffff 1 800] ------- [1:255 -1:255 28 0] [0x2 3 1 [3 0] [0 4]] (REQUEST)
r 1.060317325 _3_ RTR  --- 0 AODV 48 [0 ffffffff 1 800] ------- [1:255 -1:255 28 0] [0x2 3 1 [3 0] [0 4]] (REQUEST)
s 1.060382325 _3_ MAC  --- 0 RTS 44 [58e 0 3 0] 
r 1.060735158 _0_ MAC  --- 0 RTS 44 [58e 0 3 0] 
s 1.060745158 _0_ MAC  --- 0 CTS 38 [454 3 0 0] 
r 1.061049991 _3_ MAC  --- 0 CTS 38 [454 3 0 0] 
s 1.061059991 _3_ MAC  --- 13 ack 98 [13a 0 3 800] ------- [3:0 0:0 30 0] [4 0] 0 0
r 1.061844825 _0_ MAC  --- 13 ack 40 [13a 0 3 800] ------- [3:0 0:0 30 0] [4 0] 1 0
s 1.061854825 _0_ MAC  --- 0 ACK 38 [0 3 0 0] 
r 1.061869825 _0_ AGT  --- 13 ack 40 [13a 0 3 800] ------- [3:0 0:0 30 0] [4 0] 1 0
s 1.061869825 _0_ AGT  --- 14 tcp 1040 [0 0 0 0] ------- [0:0 3:0 32 0] [9 0] 0 0
r 1.061869825 _0_ RTR  --- 14 tcp 1040 [0 0 0 0] ------- [0:0 3:0 32 0] [9 0] 0 0
s 1.061869825 _0_ AGT  --- 15 tcp 1040 [0 0 0 0] ------- [0:0 3:0 32 0] [10 0] 0 0
r 1.061869825 _0_ RTR  --- 15 tcp 1040 [0 0 0 0] ------- [0:0 3:0 32 0] [10 0] 0 0
s 1.061869825 _0_ RTR  --- 14 tcp 1040 [0 0 0 0] ------- [0:0 3:0 30 3] [9 0] 0 0
s 1.061869825 _0_ RTR  --- 15 tcp 1040 [0 0 0 0] ------- [0:0 3:0 30 3] [10 0] 0 0
r 1.062159658 _3_ MAC  --- 0 ACK 38 [0 3 0 0] 
s 1.062428825 _0_ MAC  --- 0 RTS 44 [24ce 3 0 0] 
r 1.062781658 _3_ MAC  --- 0 RTS 44 [24ce 3 0 0] 
s 1.062791658 _3_ MAC  --- 0 CTS 38 [2394 0 0 0] 
r 1.063096491 _0_ MAC  --- 0 CTS 38 [2394 0 0 0] 
s 1.063106491 _0_ MAC  --- 8 tcp 1098 [13a 3 0 800] ------- [0:0 3:0 30 3] [5 0] 0 0
r 1.071891325 _3_ MAC  --- 8 tcp 1040 [13a 3 0 800] ------- [0:0 3:0 30 3] [5 0] 1 0
s 1.071901325 _3_ MAC  --- 0 ACK 38 [0 0 0 0] 
r 1.071916325 _3_ AGT  --- 8 tcp 1040 [13a 3 0 800] ------- [0:0 3:0 30 3] [5 0] 1 0
s 1.071916325 _3_ AGT  --- 16 ack 40 [0 0 0 0] ------- [3:0 0:0 32 0] [5 0] 0 0
r 1.071916325 _3_ RTR  --- 16 ack 40 [0 0 0 0] ------- [3:0 0:0 32 0] [5 0] 0 0
s 1.071916325 _3_ RTR  --- 16 ack 40 [0 0 0 0] ------- [3:0 0:0 30 0] [5 0] 0 0
r 1.072206158 _0_ MAC  --- 0 ACK 38 [0 0 0 0] 
s 1.072555325 _3_ MAC  --- 0 RTS 44 [58e 0 3 0] 
r 1.072908158 _0_ MAC  --- 0 RTS 44 [58e 0 3 0] 
s 1.072918158 _0_ MAC  --- 0 CTS 38 [454 3 0 0] 
r 1.073222991 _3_ MAC  --- 0 CTS 38 [454 3 0 0] 
s 1.073232991 _3_ MAC  --- 16 ack 98 [13a 0 3 800] ------- [3:0 0:0 30 0] [5 0] 0 0
r 1.074017825 _0_ MAC  --- 16 ack 40 [13a 0 3 800] ------- [3:0 0:0 30 0] [5 0] 1 0
s 1.074027825 _0_ MAC  --- 0 ACK 38 [0 3 0 0] 
r 1.074042825 _0_ AGT  --- 16 ack 40 [13a 0 3 800] ------- [3:0 0:0 30 0] [5 0] 1 0
s 1.074042825 _0_ AGT  --- 17 tcp 1040 [0 0 0 0] ------- [0:0 3:0 32 0] [11 0] 0 0
r 1.074042825 _0_ RTR  --- 17 tcp 1040 [0 0 0 0] ------- [0:0 3:0 32 0] [11 0] 0 0
s 1.074042825 _0_ AGT  --- 18 tcp 1040 [0 0 0 0] ------- [0:0 3:0 32 0] [12 0] 0 0
r 1.074042825 _0_ RTR  --- 18 tcp 1040 [0 0 0 0] ------- [0:0 3:0 32 0] [12 0] 0 0
s 1.074042825 _0_ RTR  --- 17 tcp 1040 [0 0 0 0] ------- [0:0 3:0 30 3] [11 0] 0 0
s 1.074042825 _0_ RTR  --- 18 tcp 1040 [0 0 0 0] ------- [0:0 3:0 30 3] [12 0] 0 0
r 1.074332658 _3_ MAC  --- 0 ACK 38 [0 3 0 0] 
s 1.074461825 _0_ MAC  --- 0 RTS 44 [24ce 3 0 0] 
r 1.074814658 _3_ MAC  --- 0 RTS 44 [24ce 3 0 0] 
s 1.074824658 _3_ MAC  --- 0 CTS 38 [2394 0 0 0] 
r 1.075129491 _0_ MAC  --- 0 CTS 38 [2394 0 0 0] 
s 1.075139491 _0_ MAC  --- 9 tcp 1098 [13a 3 0 800] ------- [0:0 3:0 30 3] [6 0] 0 0
r 1.083924325 _3_ MAC  --- 9 tcp 1040 [13a 3 0 800] ------- [0:0 3:0 30 3] [6 0] 1 0
s 1.083934325 _3_ MAC  --- 0 ACK 38 [0 0 0 0] 
r 1.083949325 _3_ AGT  --- 9 tcp 1040 [13a 3 0 800] ------- [0:0 3:0 30 3] [6 0] 1 0
s 1.083949325 _3_ AGT  --- 19 ack 40 [0 0 0 0] ------- [3:0 0:0 32 0] [6 0] 0 0
r 1.083949325 _3_ RTR  --- 19 ack 40 [0 0 0 0] ------- [3:0 0:0 32 0] [6 0] 0 0
s 1.083949325 _3_ RTR  --- 19 ack 40 [0 0 0 0] ------- [3:0 0:0 30 0] [6 0] 0 0
r 1.084239158 _0_ MAC  --- 0 ACK 38 [0 0 0 0] 
s 1.084368325 _3_ MAC  --- 0 RTS 44 [58e 0 3 0] 
s 1.084369158 _0_ MAC  --- 0 RTS 44 [24ce 3 0 0] 
s 1.085135158 _0_ MAC  --- 0 RTS 44 [24ce 3 0 0] 
r 1.085487991 _3_ MAC  --- 0 RTS 44 [24ce 3 0 0] 
s 1.085497991 _3_ MAC  --- 0 CTS 38 [2394 0 0 0] 
r 1.085802825 _0_ MAC  --- 0 CTS 38 [2394 0 0 0] 
s 1.085812825 _0_ MAC  --- 11 tcp 1098 [13a 3 0 800] ------- [0:0 3:0 30 3] [7 0] 0 0
r 1.094597658 _3_ MAC  --- 11 tcp 1040 [13a 3 0 800] ------- [0:0 3:0 30 3] [7 0] 1 0
s 1.094607658 _3_ MAC  --- 0 ACK 38 [0 0 0 0] 
r 1.094622658 _3_ AGT  --- 11 tcp 1040 [13a 3 0 800] ------- [0:0 3:0 30 3] [7 0] 1 0
s 1.094622658 _3_ AGT  --- 20 ack 40 [0 0 0 0] ------- [3:0 0:0 32 0] [7 0] 0 0
r 1.094622658 _3_ RTR  --- 20 ack 40 [0 0 0 0] ------- [3:0 0:0 32 0] [7 0] 0 0
s 1.094622658 _3_ RTR  --- 20 ack 40 [0 0 0 0] ------- [3:0 0:0 30 0] [7 0] 0 0
r 1.094912491 _0_ MAC  --- 0 ACK 38 [0 0 0 0] 
s 1.095062491 _0_ MAC  --- 0 RTS 44 [24ce 3 0 0] 
r 1.095415325 _3_ MAC  --- 0 RTS 44 [24ce 3 0 0] 
s 1.095425325 _3_ MAC  --- 0 CTS 38 [2394 0 0 0] 
r 1.095730158 _0_ MAC  --- 0 CTS 38 [2394 0 0 0] 
s 1.095740158 _0_ MAC  --- 12 tcp 1098 [13a 3 0 800] ------- [0:0 3:0 30 3] [8 0] 0 0
r 1.104524991 _3_ MAC  --- 12 tcp 1040 [13a 3 0 800] ------- [0:0 3:0 30 3] [8 0] 1 0
s 1.104534991 _3_ MAC  --- 0 ACK 38 [0 0 0 0] 
r 1.104549991 _3_ AGT  --- 12 tcp 1040 [13a 3 0 800] ------- [0:0 3:0 30 3] [8 0] 1 0
s 1.104549991 _3_ AGT  --- 21 ack 40 [0 0 0 0] ------- [3:0 0:0 32 0] [8 0] 0 0
r 1.104549991 _3_ RTR  --- 21 ack 40 [0 0 0 0] ------- [3:0 0:0 32 0] [8 0] 0 0
s 1.104549991 _3_ RTR  --- 21 ack 40 [0 0 0 0] ------- [3:0 0:0 30 0] [8 0] 0 0
r 1.104839825 _0_ MAC  --- 0 ACK 38 [0 0 0 0] 
s 1.105409825 _0_ MAC  --- 0 RTS 44 [24ce 3 0 0] 
r 1.105762658 _3_ MAC  --- 0 RTS 44 [24ce 3 0 0] 
s 1.105772658 _3_ MAC  --- 0 CTS 38 [2394 0 0 0] 
r 1.106077491 _0_ MAC  --- 0 CTS 38 [2394 0 0 0] 
s 1.106087491 _0_ MAC  --- 14 tcp 1098 [13a 3 0 800] ------- [0:0 3:0 30 3] [9 0] 0 0
r 1.114872325 _3_ MAC  --- 14 tcp 1040 [13a 3 0 800] ------- [0:0 3:0 30 3] [9 0] 1 0
s 1.114882325 _3_ MAC  --- 0 ACK 38 [0 0 0 0] 
r 1.114897325 _3_ AGT  --- 14 tcp 1040 [13a 3 0 800] ------- [0:0 3:0 30 3] [9 0] 1 0
s 1.114897325 _3_ AGT  --- 22 ack 40 [0 0 0 0] ------- [3:0 0:0 32 0] [9 0] 0 0
r 1.114897325 _3_ RTR  --- 22 ack 40 [0 0 0 0] ------- [3:0 0:0 32 0] [9 0] 0 0
s 1.114897325 _3_ RTR  --- 22 ack 40 [0 0 0 0] ------- [3:0 0:0 30 0] [9 0] 0 0
r 1.115187158 _0_ MAC  --- 0 ACK 38 [0 0 0 0] 
s 1.115457158 _0_ MAC  --- 0 RTS 44 [24ce 3 0 0] 
r 1.115809991 _3_ MAC  --- 0 RTS 44 [24ce 3 0 0] 
s 1.115819991 _3_ MAC  --- 0 CTS 38 [2394 0 0 0] 
r 1.116124825 _0_ MAC  --- 0 CTS 38 [2394 0 0 0] 
s 1.116134825 _0_ MAC  --- 15 tcp 1098 [13a 3 0 800] ------- [0:0 3:0 30 3] [10 0] 0 0
r 1.124919658 _3_ MAC  --- 15 tcp 1040 [13a 3 0 800] ------- [0:0 3:0 30 3] [10 0] 1 0
s 1.124929658 _3_ MAC  --- 0 ACK 38 [0 0 0 0] 
r 1.124944658 _3_ AGT  --- 15 tcp 1040 [13a 3 0 800] ------- [0:0 3:0 30 3] [10 0] 1 0
s 1.124944658 _3_ AGT  --- 23 ack 40 [0 0 0 0] ------- [3:0 0:0 32 0] [10 0] 0 0
r 1.124944658 _3_ RTR  --- 23 ack 40 [0 0 0 0] ------- [3:0 0:0 32 0] [10 0] 0 0
s 1.124944658 _3_ RTR  --- 23 ack 40 [0 0 0 0] ------- [3:0 0:0 30 0] [10 0] 0 0
r 1.125234491 _0_ MAC  --- 0 ACK 38 [0 0 0 0] 
s 1.125484491 _0_ MAC  --- 0 RTS 44 [24ce 3 0 0] 
r 1.125837325 _3_ MAC  --- 0 RTS 44 [24ce 3 0 0] 
s 1.125847325 _3_ MAC  --- 0 CTS 38 [2394 0 0 0] 
r 1.126152158 _0_ MAC  --- 0 CTS 38 [2394 0 0 0] 
s 1.126162158 _0_ MAC  --- 17 tcp 1098 [13a 3 0 800] ------- [0:0 3:0 30 3] [11 0] 0 0
r 1.134946991 _3_ MAC  --- 17 tcp 1040 [13a 3 0 800] ------- [0:0 3:0 30 3] [11 0] 1 0
s 1.134956991 _3_ MAC  --- 0 ACK 38 [0 0 0 0] 
r 1.134971991 _3_ AGT  --- 17 tcp 1040 [13a 3 0 800] ------- [0:0 3:0 30 3] [11 0] 1 0
s 1.134971991 _3_ AGT  --- 24 ack 40 [0 0 0 0] ------- [3:0 0:0 32 0] [11 0] 0 0
r 1.134971991 _3_ RTR  --- 24 ack 40 [0 0 0 0] ------- [3:0 0:0 32 0] [11 0] 0 0
s 1.134971991 _3_ RTR  --- 24 ack 40 [0 0 0 0] ------- [3:0 0:0 30 0] [11 0] 0 0
r 1.135261825 _0_ MAC  --- 0 ACK 38 [0 0 0 0] 
s 1.135390991 _3_ MAC  --- 0 RTS 44 [58e 0 3 0] 
r 1.135743825 _0_ MAC  --- 0 RTS 44 [58e 0 3 0] 
s 1.135753825 _0_ MAC  --- 0 CTS 38 [454 3 0 0] 
r 1.136058658 _3_ MAC  --- 0 CTS 38 [454 3 0 0] 
s 1.136068658 _3_ MAC  --- 19 ack 98 [13a 0 3 800] ------- [3:0 0:0 30 0] [6 0] 0 0
r 1.136853491 _0_ MAC  --- 19 ack 40 [13a 0 3 800] ------- [3:0 0:0 30 0] [6 0] 1 0
s 1.136863491 _0_ MAC  --- 0 ACK 38 [0 3 0 0] 
r 1.136878491 _0_ AGT  --- 19 ack 40 [13a 0 3 800] ------- [3:0 0:0 30 0] [6 0] 1 0
s 1.136878491 _0_ AGT  --- 25 tcp 1040 [0 0 0 0] ------- [0:0 3:0 32 0] [13 0] 0 0
r 1.136878491 _0_ RTR  --- 25 tcp 1040 [0 0 0 0] ------- [0:0 3:0 32 0] [13 0] 0 0
s 1.136878491 _0_ AGT  --- 26 tcp 1040 [0 0 0 0] ------- [0:0 3:0 32 0] [14 0] 0 0
r 1.136878491 _0_ RTR  --- 26 tcp 1040 [0 0 0 0] ------- [0:0 3:0 32 0] [14 0] 0 0
s 1.136878491 _0_ RTR  --- 25 tcp 1040 [0 0 0 0] ------- [0:0 3:0 30 3] [13 0] 0 0
s 1.136878491 _0_ RTR  --- 26 tcp 1040 [0 0 0 0] ------- [0:0 3:0 30 3] [14 0] 0 0
r 1.137168325 _3_ MAC  --- 0 ACK 38 [0 3 0 0] 
s 1.137278325 _3_ MAC  --- 0 RTS 44 [58e 0 3 0] 
r 1.137631158 _0_ MAC  --- 0 RTS 44 [58e 0 3 0] 
s 1.137641158 _0_ MAC  --- 0 CTS 38 [454 3 0 0] 
r 1.137945991 _3_ MAC  --- 0 CTS 38 [454 3 0 0] 
s 1.137955991 _3_ MAC  --- 20 ack 98 [13a 0 3 800] ------- [3:0 0:0 30 0] [7 0] 0 0
r 1.138740825 _0_ MAC  --- 20 ack 40 [13a 0 3 800] ------- [3:0 0:0 30 0] [7 0] 1 0
s 1.138750825 _0_ MAC  --- 0 ACK 38 [0 3 0 0] 
r 1.138765825 _0_ AGT  --- 20 ack 40 [13a 0 3 800] ------- [3:0 0:0 30 0] [7 0] 1 0
s 1.138765825 _0_ AGT  --- 27 tcp 1040 [0 0 0 0] ------- [0:0 3:0 32 0] [15 0] 0 0
r 1.138765825 _0_ RTR  --- 27 tcp 1040 [0 0 0 0] ------- [0:0 3:0 32 0] [15 0] 0 0
s 1.138765825 _0_ AGT  --- 28 tcp 1040 [0 0 0 0] ------- [0:0 3:0 32 0] [16 0] 0 0
r 1.138765825 _0_ RTR  --- 28 tcp 1040 [0 0 0 0] ------- [0:0 3:0 32 0] [16 0] 0 0
s 1.138765825 _0_ RTR  --- 27 tcp 1040 [0 0 0 0] ------- [0:0 3:0 30 3] [15 0] 0 0
s 1.138765825 _0_ RTR  --- 28 tcp 1040 [0 0 0 0] ------- [0:0 3:0 30 3] [16 0] 0 0
r 1.139055658 _3_ MAC  --- 0 ACK 38 [0 3 0 0] 
s 1.139225658 _3_ MAC  --- 0 RTS 44 [58e 0 3 0] 
r 1.139578491 _0_ MAC  --- 0 RTS 44 [58e 0 3 0] 
s 1.139588491 _0_ MAC  --- 0 CTS 38 [454 3 0 0] 
r 1.139893325 _3_ MAC  --- 0 CTS 38 [454 3 0 0] 
s 1.139903325 _3_ MAC  --- 21 ack 98 [13a 0 3 800] ------- [3:0 0:0 30 0] [8 0] 0 0
r 1.140688158 _0_ MAC  --- 21 ack 40 [13a 0 3 800] ------- [3:0 0:0 30 0] [8 0] 1 0
s 1.140698158 _0_ MAC  --- 0 ACK 38 [0 3 0 0] 
r 1.140713158 _0_ AGT  --- 21 ack 40 [13a 0 3 800] ------- [3:0 0:0 30 0] [8 0] 1 0
s 1.140713158 _0_ AGT  --- 29 tcp 1040 [0 0 0 0] ------- [0:0 3:0 32 0] [17 0] 0 0
r 1.140713158 _0_ RTR  --- 29 tcp 1040 [0 0 0 0] ------- [0:0 3:0 32 0] [17 0] 0 0
s 1.140713158 _0_ AGT  --- 30 tcp 1040 [0 0 0 0] ------- [0:0 3:0 32 0] [18 0] 0 0
r 1.140713158 _0_ RTR  --- 30 tcp 1040 [0 0 0 0] ------- [0:0 3:0 32 0] [18 0] 0 0
s 1.140713158 _0_ RTR  --- 29 tcp 1040 [0 0 0 0] ------- [0:0 3:0 30 3] [17 0] 0 0
s 1.140713158 _0_ RTR  --- 30 tcp 1040 [0 0 0 0] ------- [0:0 3:0 30 3] [18 0] 0 0
r 1.141002991 _3_ MAC  --- 0 ACK 38 [0 3 0 0] 
s 1.141392158 _0_ MAC  --- 0 RTS 44 [24ce 3 0 0] 
s 1.141392991 _3_ MAC  --- 0 RTS 44 [58e 0 3 0] 
s 1.142198991 _3_ MAC  --- 0 RTS 44 [58e 0 3 0] 
r 1.142551825 _0_ MAC  --- 0 RTS 44 [58e 0 3 0] 
s 1.142561825 _0_ MAC  --- 0 CTS 38 [454 3 0 0] 
r 1.142866658 _3_ MAC  --- 0 CTS 38 [454 3 0 0] 
s 1.142876658 _3_ MAC  --- 22 ack 98 [13a 0 3 800] ------- [3:0 0:0 30 0] [9 0] 0 0
r 1.143661491 _0_ MAC  --- 22 ack 40 [13a 0 3 800] ------- [3:0 0:0 30 0] [9 0] 1 0
s 1.143671491 _0_ MAC  --- 0 ACK 38 [0 3 0 0] 
r 1.143686491 _0_ AGT  --- 22 ack 40 [13a 0 3 800] ------- [3:0 0:0 30 0] [9 0] 1 0
s 1.143686491 _0_ AGT  --- 31 tcp 1040 [0 0 0 0] ------- [0:0 3:0 32 0] [19 0] 0 0
r 1.143686491 _0_ RTR  --- 31 tcp 1040 [0 0 0 0] ------- [0:0 3:0 32 0] [19 0] 0 0
s 1.143686491 _0_ AGT  --- 32 tcp 1040 [0 0 0 0] ------- [0:0 3:0 32 0] [20 0] 0 0
r 1.143686491 _0_ RTR  --- 32 tcp 1040 [0 0 0 0] ------- [0:0 3:0 32 0] [20 0] 0 0
s 1.143686491 _0_ RTR  --- 31 tcp 1040 [0 0 0 0] ------- [0:0 3:0 30 3] [19 0] 0 0
s 1.143686491 _0_ RTR  --- 32 tcp 1040 [0 0 0 0] ------- [0:0 3:0 30 3] [20 0] 0 0
r 1.143976325 _3_ MAC  --- 0 ACK 38 [0 3 0 0] 
s 1.144206325 _3_ MAC  --- 0 RTS 44 [58e 0 3 0] 
r 1.144559158 _0_ MAC  --- 0 RTS 44 [58e 0 3 0] 
s 1.144569158 _0_ MAC  --- 0 CTS 38 [454 3 0 0] 
r 1.144873991 _3_ MAC  --- 0 CTS 38 [454 3 0 0] 
s 1.144883991 _3_ MAC  --- 23 ack 98 [13a 0 3 800] ------- [3:0 0:0 30 0] [10 0] 0 0
r 1.145668825 _0_ MAC  --- 23 ack 40 [13a 0 3 800] ------- [3:0 0:0 30 0] [10 0] 1 0
s 1.145678825 _0_ MAC  --- 0 ACK 38 [0 3 0 0] 
r 1.145693825 _0_ AGT  --- 23 ack 40 [13a 0 3 800] ------- [3:0 0:0 30 0] [10 0] 1 0
s 1.145693825 _0_ AGT  --- 33 tcp 1040 [0 0 0 0] ------- [0:0 3:0 32 0] [21 0] 0 0
r 1.145693825 _0_ RTR  --- 33 tcp 1040 [0 0 0 0] ------- [0:0 3:0 32 0] [21 0] 0 0
s 1.145693825 _0_ AGT  --- 34 tcp 1040 [0 0 0 0] ------- [0:0 3:0 32 0] [22 0] 0 0
r 1.145693825 _0_ RTR  --- 34 tcp 1040 [0 0 0 0] ------- [0:0 3:0 32 0] [22 0] 0 0
s 1.145693825 _0_ RTR  --- 33 tcp 1040 [0 0 0 0] ------- [0:0 3:0 30 3] [21 0] 0 0
s 1.145693825 _0_ RTR  --- 34 tcp 1040 [0 0 0 0] ------- [0:0 3:0 30 3] [22 0] 0 0
r 1.145983658 _3_ MAC  --- 0 ACK 38 [0 3 0 0] 
s 1.146313658 _3_ MAC  --- 0 RTS 44 [58e 0 3 0] 
r 1.146666491 _0_ MAC  --- 0 RTS 44 [58e 0 3 0] 
s 1.146676491 _0_ MAC  --- 0 CTS 38 [454 3 0 0] 
r 1.146981325 _3_ MAC  --- 0 CTS 38 [454 3 0 0] 
s 1.146991325 _3_ MAC  --- 24 ack 98 [13a 0 3 800] ------- [3:0 0:0 30 0] [11 0] 0 0
r 1.147776158 _0_ MAC  --- 24 ack 40 [13a 0 3 800] ------- [3:0 0:0 30 0] [11 0] 1 0
s 1.147786158 _0_ MAC  --- 0 ACK 38 [0 3 0 0] 
r 1.147801158 _0_ AGT  --- 24 ack 40 [13a 0 3 800] ------- [3:0 0:0 30 0] [11 0] 1 0
s 1.147801158 _0_ AGT  --- 35 tcp 1040 [0 0 0 0] ------- [0:0 3:0 32 0] [23 0] 0 0
r 1.147801158 _0_ RTR  --- 35 tcp 1040 [0 0 0 0] ------- [0:0 3:0 32 0] [23 0] 0 0
s 1.147801158 _0_ AGT  --- 36 tcp 1040 [0 0 0 0] ------- [0:0 3:0 32 0] [24 0] 0 0
r 1.147801158 _0_ RTR  --- 36 tcp 1040 [0 0 0 0] ------- [0:0 3:0 32 0] [24 0] 0 0
s 1.147801158 _0_ RTR  --- 35 tcp 1040 [0 0 0 0] ------- [0:0 3:0 30 3] [23 0] 0 0
s 1.147801158 _0_ RTR  --- 36 tcp 1040 [0 0 0 0] ------- [0:0 3:0 30 3] [24 0] 0 0
r 1.148090991 _3_ MAC  --- 0 ACK 38 [0 3 0 0] 
s 1.148340158 _0_ MAC  --- 0 RTS 44 [24ce 3 0 0] 
r 1.148692991 _3_ MAC  --- 0 RTS 44 [24ce 3 0 0] 
s 1.148702991 _3_ MAC  --- 0 CTS 38 [2394 0 0 0] 
r 1.149007825 _0_ MAC  --- 0 CTS 38 [2394 0 0 0] 
s 1.149017825 _0_ MAC  --- 18 tcp 1098 [13a 3 0 800] ------- [0:0 3:0 30 3] [12 0] 0 0
r 1.157802658 _3_ MAC  --- 18 tcp 1040 [13a 3 0 800] ------- [0:0 3:0 30 3] [12 0] 1 0
s 1.157812658 _3_ MAC  --- 0 ACK 38 [0 0 0 0] 
r 1.157827658 _3_ AGT  --- 18 tcp 1040 [13a 3 0 800] ------- [0:0 3:0 30 3] [12 0] 1 0
s 1.157827658 _3_ AGT  --- 37 ack 40 [0 0 0 0] ------- [3:0 0:0 32 0] [12 0] 0 0
r 1.157827658 _3_ RTR  --- 37 ack 40 [0 0 0 0] ------- [3:0 0:0 32 0] [12 0] 0 0
s 1.157827658 _3_ RTR  --- 37 ack 40 [0 0 0 0] ------- [3:0 0:0 30 0] [12 0] 0 0
r 1.158117491 _0_ MAC  --- 0 ACK 38 [0 0 0 0] 
s 1.158167491 _0_ MAC  --- 0 RTS 44 [24ce 3 0 0] 
r 1.158520325 _3_ MAC  --- 0 RTS 44 [24ce 3 0 0] 
s 1.158530325 _3_ MAC  --- 0 CTS 38 [2394 0 0 0] 
r 1.158835158 _0_ MAC  --- 0 CTS 38 [2394 0 0 0] 
s 1.158845158 _0_ MAC  --- 25 tcp 1098 [13a 3 0 800] ------- [0:0 3:0 30 3] [13 0] 0 0
r 1.167629991 _3_ MAC  --- 25 tcp 1040 [13a 3 0 800] ------- [0:0 3:0 30 3] [13 0] 1 0
s 1.167639991 _3_ MAC  --- 0 ACK 38 [0 0 0 0] 
r 1.167654991 _3_ AGT  --- 25 tcp 1040 [13a 3 0 800] ------- [0:0 3:0 30 3] [13 0] 1 0
s 1.167654991 _3_ AGT  --- 38 ack 40 [0 0 0 0] ------- [3:0 0:0 32 0] [13 0] 0 0
r 1.167654991 _3_ RTR  --- 38 ack 40 [0 0 0 0] ------- [3:0 0:0 32 0] [13 0] 0 0
s 1.167654991 _3_ RTR  --- 38 ack 40 [0 0 0 0] ------- [3:0 0:0 30 0] [13 0] 0 0
r 1.167944825 _0_ MAC  --- 0 ACK 38 [0 0 0 0] 
s 1.168214825 _0_ MAC  --- 0 RTS 44 [24ce 3 0 0] 
r 1.168567658 _3_ MAC  --- 0 RTS 44 [24ce 3 0 0] 
s 1.168577658 _3_ MAC  --- 0 CTS 38 [2394 0 0 0] 
r 1.168882491 _0_ MAC  --- 0 CTS 38 [2394 0 0 0] 